
     Program CP v.6.7MaX starts on 25Jun2022 at 11:56:32 

     This program is part of the open-source Quantum ESPRESSO suite
     for quantum simulation of materials; please cite
         "P. Giannozzi et al., J. Phys.:Condens. Matter 21 395502 (2009);
         "P. Giannozzi et al., J. Phys.:Condens. Matter 29 465901 (2017);
          URL http://www.quantum-espresso.org", 
     in publications or presentations arising from this work. More details at
     http://www.quantum-espresso.org/quote

     Parallel version (MPI), running on    60 processors

     MPI processes distributed on     1 nodes
     R & G space division:  proc/nbgrp/npool/nimage =      60
     Waiting for input...
     Reading input from standard input

   Job Title: MD Simulation


   Atomic Pseudopotentials Parameters
   ----------------------------------

   Reading pseudopotential for specie #  1 from file :
   ./C.UPF
   file type is UPF v.1
     file C.UPF: wavefunction(s)  3d renormalized


   Main Simulation Parameters (from input)
   ---------------------------------------
   Restart Mode       =      -1   from_scratch   
   Number of MD Steps =    1000
   Print out every            1 MD Steps
   Reads from unit    =      68
   Writes to unit     =      68
   MD Simulation time step            =       2.00
   Electronic fictitious mass (emass) =     100.00
   emass cut-off                      =      25.00

   Simulation Cell Parameters (from input)
   external pressure       =            0.00 [KBar]
   wmass (calculated)      =       163048.20 [AU]
   initial cell from CELL_PARAMETERS card
      17.27876146    0.00000000    0.00000000
      -8.63938073   14.96384637    0.00000000
       0.00000000    0.00000000   15.00000000
   ibrav =    0
   alat  =    32.65212694
   a1    =    32.65212694    0.00000000    0.00000000
   a2    =   -16.32606347   28.27757141    0.00000000
   a3    =     0.00000000    0.00000000   28.34589187

   b1    =     0.03062588    0.01768186   -0.00000000
   b2    =     0.00000000    0.03536372    0.00000000
   b3    =     0.00000000   -0.00000000    0.03527848
   omega =   26172.40970235

   Energy Cut-offs
   ---------------
   Ecutwfc =   85.0 Ry,      Ecutrho =  340.0 Ry,      Ecuts =  340.0 Ry
   Gcutwfc =   47.9     ,    Gcutrho =   95.8          Gcuts =   95.8
   NOTA BENE: refg, mmx =   0.050000  8160
   Eigenvalues calculated without the kinetic term contribution
   Orthog. with lagrange multipliers : eps =   0.10E-08,  max = ***
   verlet algorithm for electron dynamics
   with friction frice =  0.1000 , grease =  1.0000
   Electron dynamics : the temperature is not controlled
   initial random displacement of el. coordinates with  amplitude=  0.020000

   Electronic states
   -----------------
   Number of Electrons=   392, of States =   196
   Occupation numbers :
   2.00 2.00 2.00 2.00 2.00 2.00 2.00 2.00 2.00 2.00
   2.00 2.00 2.00 2.00 2.00 2.00 2.00 2.00 2.00 2.00
   2.00 2.00 2.00 2.00 2.00 2.00 2.00 2.00 2.00 2.00
   2.00 2.00 2.00 2.00 2.00 2.00 2.00 2.00 2.00 2.00
   2.00 2.00 2.00 2.00 2.00 2.00 2.00 2.00 2.00 2.00
   2.00 2.00 2.00 2.00 2.00 2.00 2.00 2.00 2.00 2.00
   2.00 2.00 2.00 2.00 2.00 2.00 2.00 2.00 2.00 2.00
   2.00 2.00 2.00 2.00 2.00 2.00 2.00 2.00 2.00 2.00
   2.00 2.00 2.00 2.00 2.00 2.00 2.00 2.00 2.00 2.00
   2.00 2.00 2.00 2.00 2.00 2.00 2.00 2.00 2.00 2.00
   2.00 2.00 2.00 2.00 2.00 2.00 2.00 2.00 2.00 2.00
   2.00 2.00 2.00 2.00 2.00 2.00 2.00 2.00 2.00 2.00
   2.00 2.00 2.00 2.00 2.00 2.00 2.00 2.00 2.00 2.00
   2.00 2.00 2.00 2.00 2.00 2.00 2.00 2.00 2.00 2.00
   2.00 2.00 2.00 2.00 2.00 2.00 2.00 2.00 2.00 2.00
   2.00 2.00 2.00 2.00 2.00 2.00 2.00 2.00 2.00 2.00
   2.00 2.00 2.00 2.00 2.00 2.00 2.00 2.00 2.00 2.00
   2.00 2.00 2.00 2.00 2.00 2.00 2.00 2.00 2.00 2.00
   2.00 2.00 2.00 2.00 2.00 2.00 2.00 2.00 2.00 2.00
   2.00 2.00 2.00 2.00 2.00 2.00


   Exchange and correlations functionals
   -------------------------------------
     Exchange-correlation=  SLA  PZ   NOGX NOGC
                           (   1   1   0   0   0   0   0)


   Ions Simulation Parameters
   --------------------------
   Ions are not allowed to move
   Ionic position (from input)
   sorted by specie, and converted to real a.u. coordinates
   Species   1 atoms =   98 mass =     21894.17 (a.u.),        12.01 (amu) rcmax =   0.50 (a.u.)
       -2.318013     4.039646    14.185334
        2.332307     4.039646    14.172946
        6.996896     4.039646    14.172946
       11.661486     4.039646    14.172946
       16.326075     4.039646    14.172946
       20.990665     4.039646    14.172946
       25.655254     4.039646    14.172946
       -4.664578     8.079299    14.172946
        0.000012     8.079299    14.172946
        4.664601     8.079299    14.172946
        9.329191     8.079299    14.172946
       13.993780     8.079299    14.172946
       18.658370     8.079299    14.172946
       23.322960     8.079299    14.172946
       -6.996873    12.118952    14.172946
       -2.332283    12.118952    14.172946
        2.332307    12.118952    14.172946
        6.996896    12.118952    14.172946
       11.661486    12.118952    14.172946
       16.326075    12.118952    14.172946
       20.990665    12.118952    14.172946
       -9.329167    16.158605    14.172946
       -4.664578    16.158605    14.172946
        0.000012    16.158605    14.172946
        4.664601    16.158605    14.172946
        9.329191    16.158605    14.172946
       13.993780    16.158605    14.172946
       18.658370    16.158605    14.172946
      -11.661462    20.198259    14.172946
       -6.996873    20.198259    14.172946
       -2.332283    20.198259    14.172946
        2.332307    20.198259    14.172946
        6.996896    20.198259    14.172946
       11.661486    20.198259    14.172946
       16.326075    20.198259    14.172946
      -13.993757    24.237912    14.172946
       -9.329167    24.237912    14.172946
       -4.664578    24.237912    14.172946
        0.000012    24.237912    14.172946
        4.664601    24.237912    14.172946
        9.329191    24.237912    14.172946
       13.993780    24.237912    14.172946
      -16.326052    28.277565    14.172946
      -11.661462    28.277565    14.172946
       -6.996873    28.277565    14.172946
       -2.332283    28.277565    14.172946
        2.332307    28.277565    14.172946
        6.996896    28.277565    14.172946
       11.661486    28.277565    14.172946
        2.332307     1.346544    14.172946
        6.996896     1.346544    14.172946
       11.661486     1.346544    14.172946
       16.326075     1.346544    14.172946
       20.990665     1.346544    14.172946
       25.655254     1.346544    14.172946
       30.319844     1.346544    14.172946
        0.000012     5.386198    14.172946
        4.664601     5.386198    14.172946
        9.329191     5.386198    14.172946
       13.993780     5.386198    14.172946
       18.658370     5.386198    14.172946
       23.322960     5.386198    14.172946
       27.987549     5.386198    14.172946
       -2.332283     9.425851    14.172946
        2.332307     9.425851    14.172946
        6.996896     9.425851    14.172946
       11.661486     9.425851    14.172946
       16.326075     9.425851    14.172946
       20.990665     9.425851    14.172946
       25.655254     9.425851    14.172946
       -4.664578    13.465504    14.172946
        0.000012    13.465504    14.172946
        4.664601    13.465504    14.172946
        9.329191    13.465504    14.172946
       13.993780    13.465504    14.172946
       18.658370    13.465504    14.172946
       23.322960    13.465504    14.172946
       -6.996873    17.505157    14.172946
       -2.332283    17.505157    14.172946
        2.332307    17.505157    14.172946
        6.996896    17.505157    14.172946
       11.661486    17.505157    14.172946
       16.326075    17.505157    14.172946
       20.990665    17.505157    14.172946
       -9.329167    21.544810    14.172946
       -4.664578    21.544810    14.172946
        0.000012    21.544810    14.172946
        4.664601    21.544810    14.172946
        9.329191    21.544810    14.172946
       13.993780    21.544810    14.172946
       18.658370    21.544810    14.172946
      -11.661462    25.584463    14.172946
       -6.996873    25.584463    14.172946
       -2.332283    25.584463    14.172946
        2.332307    25.584463    14.172946
        6.996896    25.584463    14.172946
       11.661486    25.584463    14.172946
       16.326075    25.584463    14.172946
   Ionic position read from input file


   Cell Dynamics Parameters (from STDIN)
   -------------------------------------
   internal stress tensor calculated
   Starting cell generated from CELLDM
   Constant VOLUME Molecular dynamics
   cell parameters are not allowed to move

   Verbosity: iverbosity =  0



   Simulation dimensions initialization
   ------------------------------------

   unit vectors of full simulation cell
   in real space:                         in reciprocal space (units 2pi/alat):
   1    32.6521    0.0000    0.0000              1.0000    0.5774   -0.0000
   2   -16.3261   28.2776    0.0000              0.0000    1.1547    0.0000
   3     0.0000    0.0000   28.3459              0.0000   -0.0000    1.1519

     Parallelization info
     --------------------
     sticks:   dense  smooth     PW     G-vecs:    dense   smooth      PW
     Min         415     415    102                46164    46164    5758
     Max         418     418    104                46176    46176    5780
     Sum       24967   24967   6217              2770205  2770205  346355


   Real Mesh
   ---------
   Global Dimensions   Local  Dimensions   Processor Grid
   .X.   .Y.   .Z.     .X.   .Y.   .Z.     .X.   .Y.   .Z.
   192   192   180     192   192     3       1     1    60
   Array leading dimensions ( nr1x, nr2x, nr3x )   =    192   192   180
   Local number of cell to store the grid ( nrxx ) =     110592
   Number of x-y planes for each processors: 
  | 192,   3  | 192,   3  | 192,   3  | 192,   3  | 192,   3
  | 192,   3  | 192,   3  | 192,   3  | 192,   3  | 192,   3
  | 192,   3  | 192,   3  | 192,   3  | 192,   3  | 192,   3
  | 192,   3  | 192,   3  | 192,   3  | 192,   3  | 192,   3
  | 192,   3  | 192,   3  | 192,   3  | 192,   3  | 192,   3
  | 192,   3  | 192,   3  | 192,   3  | 192,   3  | 192,   3
  | 192,   3  | 192,   3  | 192,   3  | 192,   3  | 192,   3
  | 192,   3  | 192,   3  | 192,   3  | 192,   3  | 192,   3
  | 192,   3  | 192,   3  | 192,   3  | 192,   3  | 192,   3
  | 192,   3  | 192,   3  | 192,   3  | 192,   3  | 192,   3
  | 192,   3  | 192,   3  | 192,   3  | 192,   3  | 192,   3
  | 192,   3  | 192,   3  | 192,   3  | 192,   3  | 192,   3

   Smooth Real Mesh
   ----------------
   Global Dimensions   Local  Dimensions   Processor Grid
   .X.   .Y.   .Z.     .X.   .Y.   .Z.     .X.   .Y.   .Z.
   192   192   180     192   192     3       1     1    60
   Array leading dimensions ( nr1x, nr2x, nr3x )   =    192   192   180
   Local number of cell to store the grid ( nrxx ) =     110592
   Number of x-y planes for each processors: 
  | 192,   3  | 192,   3  | 192,   3  | 192,   3  | 192,   3
  | 192,   3  | 192,   3  | 192,   3  | 192,   3  | 192,   3
  | 192,   3  | 192,   3  | 192,   3  | 192,   3  | 192,   3
  | 192,   3  | 192,   3  | 192,   3  | 192,   3  | 192,   3
  | 192,   3  | 192,   3  | 192,   3  | 192,   3  | 192,   3
  | 192,   3  | 192,   3  | 192,   3  | 192,   3  | 192,   3
  | 192,   3  | 192,   3  | 192,   3  | 192,   3  | 192,   3
  | 192,   3  | 192,   3  | 192,   3  | 192,   3  | 192,   3
  | 192,   3  | 192,   3  | 192,   3  | 192,   3  | 192,   3
  | 192,   3  | 192,   3  | 192,   3  | 192,   3  | 192,   3
  | 192,   3  | 192,   3  | 192,   3  | 192,   3  | 192,   3
  | 192,   3  | 192,   3  | 192,   3  | 192,   3  | 192,   3

   Reciprocal Space Mesh
   ---------------------
   Large Mesh
     Global(ngm_g)    MinLocal       MaxLocal      Average
        1385103          23082          23088       23085.05
   Smooth Mesh
     Global(ngms_g)   MinLocal       MaxLocal      Average
        1385103          23082          23088       23085.05
   Wave function Mesh
     Global(ngw_g)    MinLocal       MaxLocal      Average
         173178           2879           2890        2886.30


   System geometry initialization
   ------------------------------
   ibrav =    0       cell parameters read from input file

   Matrix Multiplication Performances
   ortho mmul, time for parallel driver      =   0.00023 with   49 procs

   Constraints matrixes will be distributed block like on
   ortho sub-group =    7*   7 procs



   Pseudopotentials initialization
   -------------------------------


   Common initialization

   Specie:     1
   1  indv=  1   ang. mom=  0
   2  indv=  2   ang. mom=  1
   3  indv=  2   ang. mom=  1
   4  indv=  2   ang. mom=  1

                        dion 
   0.6484   0.0000
   0.0000  -1.8728

   Cell parameters from input file are used in electron mass preconditioning
   init_tpiba2=    0.03702856

   Short Legend and Physical Units in the Output
   ---------------------------------------------
   NFI    [int]          - step index
   EKINC  [HARTREE A.U.] - kinetic energy of the fictitious electronic dynamics
   TEMPH  [K]            - Temperature of the fictitious cell dynamics
   TEMP   [K]            - Ionic temperature
   ETOT   [HARTREE A.U.] - Scf total energy (Kohn-Sham hamiltonian)
   ENTHAL [HARTREE A.U.] - Enthalpy ( ETOT + P * V )
   ECONS  [HARTREE A.U.] - Enthalpy + kinetic energy of ions and cell
   ECONT  [HARTREE A.U.] - Constant of motion for the CP lagrangian



   Wave Initialization: random initial wave-functions
   Occupation number from init
   nbnd =   196
    2.00 2.00 2.00 2.00 2.00 2.00 2.00 2.00 2.00 2.00
    2.00 2.00 2.00 2.00 2.00 2.00 2.00 2.00 2.00 2.00
    2.00 2.00 2.00 2.00 2.00 2.00 2.00 2.00 2.00 2.00
    2.00 2.00 2.00 2.00 2.00 2.00 2.00 2.00 2.00 2.00
    2.00 2.00 2.00 2.00 2.00 2.00 2.00 2.00 2.00 2.00
    2.00 2.00 2.00 2.00 2.00 2.00 2.00 2.00 2.00 2.00
    2.00 2.00 2.00 2.00 2.00 2.00 2.00 2.00 2.00 2.00
    2.00 2.00 2.00 2.00 2.00 2.00 2.00 2.00 2.00 2.00
    2.00 2.00 2.00 2.00 2.00 2.00 2.00 2.00 2.00 2.00
    2.00 2.00 2.00 2.00 2.00 2.00 2.00 2.00 2.00 2.00
    2.00 2.00 2.00 2.00 2.00 2.00 2.00 2.00 2.00 2.00
    2.00 2.00 2.00 2.00 2.00 2.00 2.00 2.00 2.00 2.00
    2.00 2.00 2.00 2.00 2.00 2.00 2.00 2.00 2.00 2.00
    2.00 2.00 2.00 2.00 2.00 2.00 2.00 2.00 2.00 2.00
    2.00 2.00 2.00 2.00 2.00 2.00 2.00 2.00 2.00 2.00
    2.00 2.00 2.00 2.00 2.00 2.00 2.00 2.00 2.00 2.00
    2.00 2.00 2.00 2.00 2.00 2.00 2.00 2.00 2.00 2.00
    2.00 2.00 2.00 2.00 2.00 2.00 2.00 2.00 2.00 2.00
    2.00 2.00 2.00 2.00 2.00 2.00 2.00 2.00 2.00 2.00
    2.00 2.00 2.00 2.00 2.00 2.00

   formf: eself=  1251.08299
   formf:     vps(g=0)=  -0.0000177     rhops(g=0)=  -0.0001524
   formf:     vps(g=0)=  -0.0000176     rhops(g=0)=  -0.0001519
   formf:     vps(g=0)=  -0.0000176     rhops(g=0)=  -0.0001519
   formf:     vps(g=0)=  -0.0000171     rhops(g=0)=  -0.0001505
   formf:     vps(g=0)=  -0.0000171     rhops(g=0)=  -0.0001505
   formf: sum_g vps(g)=   0.9493360 sum_g rhops(g)=  -2.8734704
   Delta V(G=0):   0.011763Ry,    0.320095eV

   from rhoofr: total integrated electronic density
   in g-space =    392.000000   in r-space =   392.000000
     Total Electronic Pressure (GPa)     1085.74243      0

  nfi     ekinc              temph  tempp     etot                 enthal               econs                econt              vnhh    xnhh0   vnhp    xnhp0
      1  715.572502742015331    0.0    0.00    1289.985712412893    1289.985712412893    1289.985712412893    2005.558215154909   0.0000   0.0000   0.0000   0.0000
      2 1128.442576189624560    0.0    0.00     442.720547584263     442.720547584263     442.720547584263    1571.163123773888   0.0000   0.0000   0.0000   0.0000
      3  930.537023317162266    0.0    0.00     303.447544038336     303.447544038336     303.447544038336    1233.984567355498   0.0000   0.0000   0.0000   0.0000
      4  703.870341966291790    0.0    0.00     183.348813244510     183.348813244510     183.348813244510     887.219155210802   0.0000   0.0000   0.0000   0.0000
      5  562.280542818193680    0.0    0.00      79.194852272659      79.194852272659      79.194852272659     641.475395090853   0.0000   0.0000   0.0000   0.0000
      6  473.710941310785415    0.0    0.00     -58.203770938149     -58.203770938149     -58.203770938149     415.507170372637   0.0000   0.0000   0.0000   0.0000
      7  384.585710523778801    0.0    0.00    -143.513484127989    -143.513484127989    -143.513484127989     241.072226395790   0.0000   0.0000   0.0000   0.0000
      8  292.730415851853706    0.0    0.00    -179.478538580781    -179.478538580781    -179.478538580781     113.251877271073   0.0000   0.0000   0.0000   0.0000
      9  231.906405710765426    0.0    0.00    -228.205968615641    -228.205968615641    -228.205968615641       3.700437095124   0.0000   0.0000   0.0000   0.0000

 * Physical Quantities at step:    10

   from rhoofr: total integrated electronic density
   in g-space =    392.000000   in r-space =   392.000000
     Total Electronic Pressure (GPa)      200.34827     10
     Pressure of Nuclei (GPa)             0.00000     10
     Pressure Total (GPa)           200.34827     10


                total energy =     -268.70551360140 Hartree a.u.
              kinetic energy =      652.46666 Hartree a.u.
        electrostatic energy =     -754.63341 Hartree a.u.
                         esr =        0.00006 Hartree a.u.
                       eself =     1251.08299 Hartree a.u.
      pseudopotential energy =      -14.81654 Hartree a.u.
  n-l pseudopotential energy =        2.56440 Hartree a.u.
 exchange-correlation energy =     -154.28661 Hartree a.u.
           average potential =        0.00000 Hartree a.u.



   Eigenvalues (eV), kp =   1 , spin =  1

  -58.55  -58.19  -57.91  -57.30  -56.94  -56.65  -56.47  -55.99  -55.61  -55.48
  -55.25  -54.87  -54.76  -54.45  -54.36  -54.25  -53.91  -53.83  -53.49  -53.26
  -53.06  -52.75  -52.57  -52.47  -52.12  -52.04  -51.70  -51.43  -51.27  -51.02
  -50.88  -50.74  -50.50  -50.36  -50.19  -49.99  -49.87  -49.34  -49.17  -49.02
  -49.00  -48.84  -48.66  -48.40  -48.21  -48.00  -47.89  -47.69  -47.46  -47.28
  -47.01  -46.85  -46.80  -46.63  -46.37  -46.29  -46.03  -45.98  -45.77  -45.48
  -45.37  -45.24  -45.21  -44.80  -44.64  -44.28  -44.01  -43.89  -43.76  -43.62
  -42.97  -42.83  -42.73  -42.51  -41.92  -41.70  -41.51  -41.40  -41.22  -41.15
  -40.87  -40.70  -40.59  -40.37  -40.13  -39.86  -39.78  -39.65  -39.42  -39.30
  -39.11  -38.88  -38.86  -38.80  -38.65  -38.42  -38.39  -38.26  -38.03  -37.75
  -37.48  -37.45  -37.36  -37.18  -36.98  -36.87  -36.65  -36.46  -36.39  -36.22
  -35.97  -35.85  -35.80  -35.73  -35.60  -35.38  -35.25  -34.97  -34.89  -34.77
  -34.47  -34.46  -34.23  -34.05  -33.96  -33.74  -33.50  -33.34  -33.18  -33.10
  -32.97  -32.63  -32.42  -32.32  -32.24  -32.07  -31.84  -31.65  -31.42  -31.22
  -31.09  -31.01  -30.74  -30.58  -30.35  -30.27  -29.89  -29.83  -29.28  -29.24
  -28.96  -28.70  -28.39  -28.07  -27.76  -27.61  -27.45  -27.25  -26.87  -26.81
  -26.43  -26.24  -25.80  -25.53  -25.13  -25.01  -24.81  -24.55  -24.05  -23.41
  -22.85  -22.78  -22.48  -22.18  -21.72  -21.12  -21.09  -20.95  -20.51  -20.18
  -19.78  -19.60  -19.16  -18.92  -18.31  -17.73  -17.31  -17.11  -16.55  -16.48
  -15.77  -15.00  -14.54  -13.46  -12.77  -12.30


   CELL_PARAMETERS
   32.65212694  -16.32606347    0.00000000
    0.00000000   28.27757141    0.00000000
    0.00000000    0.00000000   28.34589187

   System Density [g/cm^3] :              0.5039705731


   System Volume [A.U.^3] :          26172.4097023465


   Center of mass square displacement (a.u.):   0.000000

   Total stress (GPa)
      228.76453747        -1.38513477         0.42159919
       -1.38513477       222.36352571         0.13405279
        0.42159926         0.13405285       149.91675480
   ATOMIC_POSITIONS
   C      -0.23180128195139E+01     0.40396462687697E+01     0.14185334149364E+02
   C       0.23323065423689E+01     0.40396462687697E+01     0.14172945934693E+02
   C       0.69968961046669E+01     0.40396462687697E+01     0.14172945934693E+02
   C       0.11661485666965E+02     0.40396462687697E+01     0.14172945934693E+02
   C       0.16326075229263E+02     0.40396462687697E+01     0.14172945934693E+02
   C       0.20990664791561E+02     0.40396462687697E+01     0.14172945934693E+02
   C       0.25655254353859E+02     0.40396462687697E+01     0.14172945934693E+02
   C      -0.46645778011730E+01     0.80792993279375E+01     0.14172945934693E+02
   C       0.11761125029351E-04     0.80792993279375E+01     0.14172945934693E+02
   C       0.46646013234231E+01     0.80792993279375E+01     0.14172945934693E+02
   C       0.93291908857212E+01     0.80792993279375E+01     0.14172945934693E+02
   C       0.13993780448019E+02     0.80792993279375E+01     0.14172945934693E+02
   C       0.18658370010317E+02     0.80792993279375E+01     0.14172945934693E+02
   C       0.23322959572615E+02     0.80792993279375E+01     0.14172945934693E+02
   C      -0.69968725824169E+01     0.12118952387105E+02     0.14172945934693E+02
   C      -0.23322830201188E+01     0.12118952387105E+02     0.14172945934693E+02
   C       0.23323065421793E+01     0.12118952387105E+02     0.14172945934693E+02
   C       0.69968961044773E+01     0.12118952387105E+02     0.14172945934693E+02
   C       0.11661485666775E+02     0.12118952387105E+02     0.14172945934693E+02
   C       0.16326075229073E+02     0.12118952387105E+02     0.14172945934693E+02
   C       0.20990664791372E+02     0.12118952387105E+02     0.14172945934693E+02
   C      -0.93291673636607E+01     0.16158605446273E+02     0.14172945934693E+02
   C      -0.46645778013627E+01     0.16158605446273E+02     0.14172945934693E+02
   C       0.11760935417899E-04     0.16158605446273E+02     0.14172945934693E+02
   C       0.46646013232335E+01     0.16158605446273E+02     0.14172945934693E+02
   C       0.93291908855316E+01     0.16158605446273E+02     0.14172945934693E+02
   C       0.13993780447830E+02     0.16158605446273E+02     0.14172945934693E+02
   C       0.18658370010128E+02     0.16158605446273E+02     0.14172945934693E+02
   C      -0.11661462144905E+02     0.20198258505441E+02     0.14172945934693E+02
   C      -0.69968725826065E+01     0.20198258505441E+02     0.14172945934693E+02
   C      -0.23322830203084E+01     0.20198258505441E+02     0.14172945934693E+02
   C       0.23323065419896E+01     0.20198258505441E+02     0.14172945934693E+02
   C       0.69968961042877E+01     0.20198258505441E+02     0.14172945934693E+02
   C       0.11661485666586E+02     0.20198258505441E+02     0.14172945934693E+02
   C       0.16326075228884E+02     0.20198258505441E+02     0.14172945934693E+02
   C      -0.13993756926148E+02     0.24237911564609E+02     0.14172945934693E+02
   C      -0.93291673638503E+01     0.24237911564609E+02     0.14172945934693E+02
   C      -0.46645778015523E+01     0.24237911564609E+02     0.14172945934693E+02
   C       0.11760745801916E-04     0.24237911564609E+02     0.14172945934693E+02
   C       0.46646013230439E+01     0.24237911564609E+02     0.14172945934693E+02
   C       0.93291908853419E+01     0.24237911564609E+02     0.14172945934693E+02
   C       0.13993780447640E+02     0.24237911564609E+02     0.14172945934693E+02
   C      -0.16326051707392E+02     0.28277564623777E+02     0.14172945934693E+02
   C      -0.11661462145094E+02     0.28277564623777E+02     0.14172945934693E+02
   C      -0.69968725827961E+01     0.28277564623777E+02     0.14172945934693E+02
   C      -0.23322830204980E+01     0.28277564623777E+02     0.14172945934693E+02
   C       0.23323065418000E+01     0.28277564623777E+02     0.14172945934693E+02
   C       0.69968961040981E+01     0.28277564623777E+02     0.14172945934693E+02
   C       0.11661485666396E+02     0.28277564623777E+02     0.14172945934693E+02
   C       0.23323065293342E+01     0.13465444415623E+01     0.14172945934693E+02
   C       0.69968960916323E+01     0.13465444415623E+01     0.14172945934693E+02
   C       0.11661485653930E+02     0.13465444415623E+01     0.14172945934693E+02
   C       0.16326075216228E+02     0.13465444415623E+01     0.14172945934693E+02
   C       0.20990664778526E+02     0.13465444415623E+01     0.14172945934693E+02
   C       0.25655254340825E+02     0.13465444415623E+01     0.14172945934693E+02
   C       0.30319843903123E+02     0.13465444415623E+01     0.14172945934693E+02
   C       0.11748090345174E-04     0.53861975007301E+01     0.14172945934693E+02
   C       0.46646013103884E+01     0.53861975007301E+01     0.14172945934693E+02
   C       0.93291908726865E+01     0.53861975007301E+01     0.14172945934693E+02
   C       0.13993780434985E+02     0.53861975007301E+01     0.14172945934693E+02
   C       0.18658369997283E+02     0.53861975007301E+01     0.14172945934693E+02
   C       0.23322959559581E+02     0.53861975007301E+01     0.14172945934693E+02
   C       0.27987549121879E+02     0.53861975007301E+01     0.14172945934693E+02
   C      -0.23322830331535E+01     0.94258505598979E+01     0.14172945934693E+02
   C       0.23323065291446E+01     0.94258505598979E+01     0.14172945934693E+02
   C       0.69968960914426E+01     0.94258505598979E+01     0.14172945934693E+02
   C       0.11661485653741E+02     0.94258505598979E+01     0.14172945934693E+02
   C       0.16326075216039E+02     0.94258505598979E+01     0.14172945934693E+02
   C       0.20990664778337E+02     0.94258505598979E+01     0.14172945934693E+02
   C       0.25655254340635E+02     0.94258505598979E+01     0.14172945934693E+02
   C      -0.46645778143973E+01     0.13465503619066E+02     0.14172945934693E+02
   C       0.11747900729635E-04     0.13465503619066E+02     0.14172945934693E+02
   C       0.46646013101988E+01     0.13465503619066E+02     0.14172945934693E+02
   C       0.93291908724969E+01     0.13465503619066E+02     0.14172945934693E+02
   C       0.13993780434795E+02     0.13465503619066E+02     0.14172945934693E+02
   C       0.18658369997093E+02     0.13465503619066E+02     0.14172945934693E+02
   C       0.23322959559391E+02     0.13465503619066E+02     0.14172945934693E+02
   C      -0.69968725956412E+01     0.17505156678234E+02     0.14172945934693E+02
   C      -0.23322830333431E+01     0.17505156678234E+02     0.14172945934693E+02
   C       0.23323065289550E+01     0.17505156678234E+02     0.14172945934693E+02
   C       0.69968960912530E+01     0.17505156678234E+02     0.14172945934693E+02
   C       0.11661485653551E+02     0.17505156678234E+02     0.14172945934693E+02
   C       0.16326075215849E+02     0.17505156678234E+02     0.14172945934693E+02
   C       0.20990664778147E+02     0.17505156678234E+02     0.14172945934693E+02
   C      -0.93291673768850E+01     0.21544809737401E+02     0.14172945934693E+02
   C      -0.46645778145870E+01     0.21544809737401E+02     0.14172945934693E+02
   C       0.11747711115428E-04     0.21544809737401E+02     0.14172945934693E+02
   C       0.46646013100092E+01     0.21544809737401E+02     0.14172945934693E+02
   C       0.93291908723073E+01     0.21544809737401E+02     0.14172945934693E+02
   C       0.13993780434605E+02     0.21544809737401E+02     0.14172945934693E+02
   C       0.18658369996903E+02     0.21544809737401E+02     0.14172945934693E+02
   C      -0.11661462158129E+02     0.25584462796569E+02     0.14172945934693E+02
   C      -0.69968725958308E+01     0.25584462796569E+02     0.14172945934693E+02
   C      -0.23322830335327E+01     0.25584462796569E+02     0.14172945934693E+02
   C       0.23323065287653E+01     0.25584462796569E+02     0.14172945934693E+02
   C       0.69968960910634E+01     0.25584462796569E+02     0.14172945934693E+02
   C       0.11661485653361E+02     0.25584462796569E+02     0.14172945934693E+02
   C       0.16326075215660E+02     0.25584462796569E+02     0.14172945934693E+02

   ATOMIC_VELOCITIES
   C       0.00000000000000E+00     0.00000000000000E+00     0.00000000000000E+00
   C       0.00000000000000E+00     0.00000000000000E+00     0.00000000000000E+00
   C       0.00000000000000E+00     0.00000000000000E+00     0.00000000000000E+00
   C       0.00000000000000E+00     0.00000000000000E+00     0.00000000000000E+00
   C       0.00000000000000E+00     0.00000000000000E+00     0.00000000000000E+00
   C       0.00000000000000E+00     0.00000000000000E+00     0.00000000000000E+00
   C       0.00000000000000E+00     0.00000000000000E+00     0.00000000000000E+00
   C       0.00000000000000E+00     0.00000000000000E+00     0.00000000000000E+00
   C       0.00000000000000E+00     0.00000000000000E+00     0.00000000000000E+00
   C       0.00000000000000E+00     0.00000000000000E+00     0.00000000000000E+00
   C       0.00000000000000E+00     0.00000000000000E+00     0.00000000000000E+00
   C       0.00000000000000E+00     0.00000000000000E+00     0.00000000000000E+00
   C       0.00000000000000E+00     0.00000000000000E+00     0.00000000000000E+00
   C       0.00000000000000E+00     0.00000000000000E+00     0.00000000000000E+00
   C       0.00000000000000E+00     0.00000000000000E+00     0.00000000000000E+00
   C       0.00000000000000E+00     0.00000000000000E+00     0.00000000000000E+00
   C       0.00000000000000E+00     0.00000000000000E+00     0.00000000000000E+00
   C       0.00000000000000E+00     0.00000000000000E+00     0.00000000000000E+00
   C       0.00000000000000E+00     0.00000000000000E+00     0.00000000000000E+00
   C       0.00000000000000E+00     0.00000000000000E+00     0.00000000000000E+00
   C       0.00000000000000E+00     0.00000000000000E+00     0.00000000000000E+00
   C       0.00000000000000E+00     0.00000000000000E+00     0.00000000000000E+00
   C       0.00000000000000E+00     0.00000000000000E+00     0.00000000000000E+00
   C       0.00000000000000E+00     0.00000000000000E+00     0.00000000000000E+00
   C       0.00000000000000E+00     0.00000000000000E+00     0.00000000000000E+00
   C       0.00000000000000E+00     0.00000000000000E+00     0.00000000000000E+00
   C       0.00000000000000E+00     0.00000000000000E+00     0.00000000000000E+00
   C       0.00000000000000E+00     0.00000000000000E+00     0.00000000000000E+00
   C       0.00000000000000E+00     0.00000000000000E+00     0.00000000000000E+00
   C       0.00000000000000E+00     0.00000000000000E+00     0.00000000000000E+00
   C       0.00000000000000E+00     0.00000000000000E+00     0.00000000000000E+00
   C       0.00000000000000E+00     0.00000000000000E+00     0.00000000000000E+00
   C       0.00000000000000E+00     0.00000000000000E+00     0.00000000000000E+00
   C       0.00000000000000E+00     0.00000000000000E+00     0.00000000000000E+00
   C       0.00000000000000E+00     0.00000000000000E+00     0.00000000000000E+00
   C       0.00000000000000E+00     0.00000000000000E+00     0.00000000000000E+00
   C       0.00000000000000E+00     0.00000000000000E+00     0.00000000000000E+00
   C       0.00000000000000E+00     0.00000000000000E+00     0.00000000000000E+00
   C       0.00000000000000E+00     0.00000000000000E+00     0.00000000000000E+00
   C       0.00000000000000E+00     0.00000000000000E+00     0.00000000000000E+00
   C       0.00000000000000E+00     0.00000000000000E+00     0.00000000000000E+00
   C       0.00000000000000E+00     0.00000000000000E+00     0.00000000000000E+00
   C       0.00000000000000E+00     0.00000000000000E+00     0.00000000000000E+00
   C       0.00000000000000E+00     0.00000000000000E+00     0.00000000000000E+00
   C       0.00000000000000E+00     0.00000000000000E+00     0.00000000000000E+00
   C       0.00000000000000E+00     0.00000000000000E+00     0.00000000000000E+00
   C       0.00000000000000E+00     0.00000000000000E+00     0.00000000000000E+00
   C       0.00000000000000E+00     0.00000000000000E+00     0.00000000000000E+00
   C       0.00000000000000E+00     0.00000000000000E+00     0.00000000000000E+00
   C       0.00000000000000E+00     0.00000000000000E+00     0.00000000000000E+00
   C       0.00000000000000E+00     0.00000000000000E+00     0.00000000000000E+00
   C       0.00000000000000E+00     0.00000000000000E+00     0.00000000000000E+00
   C       0.00000000000000E+00     0.00000000000000E+00     0.00000000000000E+00
   C       0.00000000000000E+00     0.00000000000000E+00     0.00000000000000E+00
   C       0.00000000000000E+00     0.00000000000000E+00     0.00000000000000E+00
   C       0.00000000000000E+00     0.00000000000000E+00     0.00000000000000E+00
   C       0.00000000000000E+00     0.00000000000000E+00     0.00000000000000E+00
   C       0.00000000000000E+00     0.00000000000000E+00     0.00000000000000E+00
   C       0.00000000000000E+00     0.00000000000000E+00     0.00000000000000E+00
   C       0.00000000000000E+00     0.00000000000000E+00     0.00000000000000E+00
   C       0.00000000000000E+00     0.00000000000000E+00     0.00000000000000E+00
   C       0.00000000000000E+00     0.00000000000000E+00     0.00000000000000E+00
   C       0.00000000000000E+00     0.00000000000000E+00     0.00000000000000E+00
   C       0.00000000000000E+00     0.00000000000000E+00     0.00000000000000E+00
   C       0.00000000000000E+00     0.00000000000000E+00     0.00000000000000E+00
   C       0.00000000000000E+00     0.00000000000000E+00     0.00000000000000E+00
   C       0.00000000000000E+00     0.00000000000000E+00     0.00000000000000E+00
   C       0.00000000000000E+00     0.00000000000000E+00     0.00000000000000E+00
   C       0.00000000000000E+00     0.00000000000000E+00     0.00000000000000E+00
   C       0.00000000000000E+00     0.00000000000000E+00     0.00000000000000E+00
   C       0.00000000000000E+00     0.00000000000000E+00     0.00000000000000E+00
   C       0.00000000000000E+00     0.00000000000000E+00     0.00000000000000E+00
   C       0.00000000000000E+00     0.00000000000000E+00     0.00000000000000E+00
   C       0.00000000000000E+00     0.00000000000000E+00     0.00000000000000E+00
   C       0.00000000000000E+00     0.00000000000000E+00     0.00000000000000E+00
   C       0.00000000000000E+00     0.00000000000000E+00     0.00000000000000E+00
   C       0.00000000000000E+00     0.00000000000000E+00     0.00000000000000E+00
   C       0.00000000000000E+00     0.00000000000000E+00     0.00000000000000E+00
   C       0.00000000000000E+00     0.00000000000000E+00     0.00000000000000E+00
   C       0.00000000000000E+00     0.00000000000000E+00     0.00000000000000E+00
   C       0.00000000000000E+00     0.00000000000000E+00     0.00000000000000E+00
   C       0.00000000000000E+00     0.00000000000000E+00     0.00000000000000E+00
   C       0.00000000000000E+00     0.00000000000000E+00     0.00000000000000E+00
   C       0.00000000000000E+00     0.00000000000000E+00     0.00000000000000E+00
   C       0.00000000000000E+00     0.00000000000000E+00     0.00000000000000E+00
   C       0.00000000000000E+00     0.00000000000000E+00     0.00000000000000E+00
   C       0.00000000000000E+00     0.00000000000000E+00     0.00000000000000E+00
   C       0.00000000000000E+00     0.00000000000000E+00     0.00000000000000E+00
   C       0.00000000000000E+00     0.00000000000000E+00     0.00000000000000E+00
   C       0.00000000000000E+00     0.00000000000000E+00     0.00000000000000E+00
   C       0.00000000000000E+00     0.00000000000000E+00     0.00000000000000E+00
   C       0.00000000000000E+00     0.00000000000000E+00     0.00000000000000E+00
   C       0.00000000000000E+00     0.00000000000000E+00     0.00000000000000E+00
   C       0.00000000000000E+00     0.00000000000000E+00     0.00000000000000E+00
   C       0.00000000000000E+00     0.00000000000000E+00     0.00000000000000E+00
   C       0.00000000000000E+00     0.00000000000000E+00     0.00000000000000E+00
   C       0.00000000000000E+00     0.00000000000000E+00     0.00000000000000E+00
   C       0.00000000000000E+00     0.00000000000000E+00     0.00000000000000E+00

   Forces acting on atoms (au):
   C      -0.17601565890425E-01    -0.64428770280244E-01     0.36838102247849E-01
   C       0.17957634158143E-01    -0.26402587537632E-01     0.12440000790573E-01
   C       0.58106657254638E-01    -0.39474473539666E-01    -0.28656574022391E-01
   C       0.14838275368922E-01     0.26990722765474E-01    -0.25020029849578E-01
   C       0.87684217438991E-01    -0.54693740874979E-01    -0.41616034956754E-01
   C      -0.62050775759454E-01    -0.17594122526041E-01     0.10846636164074E+00
   C       0.69851359666687E-02    -0.32465033416606E-01     0.14759926898559E+00
   C       0.14595990519941E-01     0.16536195864235E-01    -0.15238496217532E-01
   C      -0.14791228852531E+00    -0.47718122233708E-01    -0.22565889899807E-01
   C       0.26831195445398E-01    -0.62014723968417E-01     0.28533517132145E-01
   C       0.14209504087687E-01    -0.77357070082048E-02     0.94253662569537E-02
   C      -0.59365401984436E-03     0.40169860846490E-01    -0.13189488118743E-01
   C      -0.83004276723585E-01     0.28106222936634E-01     0.92636430885974E-01
   C       0.45128324850219E-01     0.15521228858275E-01    -0.95977593474660E-01
   C       0.34283929417529E-01    -0.12243087110513E-01    -0.42805769084369E-01
   C      -0.66296757875472E-01     0.63618804959227E-02    -0.21310638342985E-01
   C      -0.45819379245267E-02     0.48704060320788E-01     0.13560133268487E+00
   C      -0.39828593039268E-02     0.16028820824319E-01    -0.20987816008847E-01
   C       0.73531887267398E-01     0.71677450550956E-03     0.46158928573235E-01
   C       0.29582289882313E-01    -0.13542449723165E-01     0.58126364206295E-01
   C       0.53205652774235E-01     0.66306811660602E-01     0.87220026542598E-01
   C      -0.32388010150106E-01    -0.20629518850703E-01     0.68518420647550E-01
   C      -0.28573586956815E-01    -0.24116740523900E-01    -0.74199079240573E-01
   C      -0.49676478231392E-01     0.27366248355706E-01    -0.16509456438982E-01
   C      -0.88612706640202E-01     0.46132852621044E-01    -0.37498266336439E-01
   C      -0.37801129878228E-01    -0.90081807053873E-02     0.33634941008338E-01
   C      -0.22141246502448E-01    -0.51458721417977E-01    -0.11481234797096E+00
   C       0.77454311847891E-01    -0.35340022899406E-01     0.32210608614384E-01
   C      -0.47038224299121E-01    -0.38097140584058E-01    -0.18938034866370E-01
   C       0.34431738858833E-01    -0.17277559134775E-01     0.12435571188699E+00
   C       0.10509455470769E+00    -0.10004472559661E+00    -0.67997326602983E-01
   C       0.35023510205737E-01    -0.51998348237322E-01     0.18173135712941E-02
   C       0.59025061668500E-01     0.21030890290994E-01     0.92721492493133E-02
   C       0.28662683389396E-01     0.24775969944916E-01    -0.14544300000527E-01
   C       0.77166604682435E-01     0.80665039380430E-01     0.28804655820896E-01
   C      -0.19935179077671E-01     0.97159535680491E-01     0.15383010231055E-01
   C      -0.20242717605506E-01    -0.44027779734384E-01    -0.13413513679990E+00
   C       0.78387493239622E-01    -0.22410856900998E-01    -0.10505384024778E+00
   C      -0.45028176361388E-01     0.66554488833931E-01     0.39674920971090E-01
   C       0.27963352367972E-01     0.39931391120885E-01     0.45612470525693E-01
   C       0.20063567261155E-01     0.27745462860526E-01     0.41845032881153E-01
   C      -0.11910299679344E-01    -0.76109876760377E-02    -0.30399911018531E-01
   C       0.58047965400194E-01    -0.25244808973089E-01    -0.58566294302671E-03
   C      -0.85807817924346E-01     0.15690207290947E-01    -0.62104280327315E-01
   C       0.22752377984181E-01     0.59961536512182E-01    -0.20409863044533E-01
   C       0.12239677219378E+00     0.56116743095410E-02     0.11761037772427E-02
   C      -0.12104610965878E+00     0.41933879364609E-01    -0.98706294823661E-02
   C       0.35535867914229E-01    -0.53318508995594E-01     0.20425361485518E-01
   C       0.15842168970964E+00    -0.98436371000840E-02     0.68891786708422E-01
   C       0.14753915451290E+00     0.10308910537683E-01    -0.61867992748695E-01
   C      -0.97820357271591E-01     0.54312725800373E-01     0.70887873508838E-01
   C       0.55903053780163E-01     0.58525912102070E-01     0.49091302272019E-01
   C      -0.92537297408252E-02     0.65038852138682E-01    -0.10032073699177E+00
   C       0.41770725443429E-01     0.85893488908940E-01     0.10690497141912E+00
   C       0.59507091043015E-01     0.36644896989446E-01    -0.23431629609140E-01
   C      -0.74869467898031E-01     0.86550087230559E-01     0.56208025929102E-01
   C      -0.36257548736154E-01    -0.89893108796425E-01    -0.38990557046527E-01
   C      -0.42804816057544E-01    -0.87651159402885E-02     0.71600758539513E-01
   C      -0.45971541179407E-01     0.58365380721955E-01     0.24109248731924E-01
   C      -0.10845189592922E-01     0.23767076276481E-01     0.58548847820341E-01
   C       0.12164014259142E-01    -0.20203326983897E-01    -0.80285245933752E-03
   C       0.26533700029594E-01     0.11147326951480E-01     0.59684336943943E-01
   C       0.64036358223424E-01    -0.15277238503776E+00    -0.24509744045647E-02
   C       0.26189573610763E-01     0.41584394891397E-01    -0.74172270805980E-01
   C       0.30504891322149E-01     0.34527656711233E-01     0.13264669571159E+00
   C       0.23314230343304E-01    -0.55841763228278E-01     0.56543891693968E-01
   C       0.21131659938438E-01    -0.80292661539721E-01     0.96736528339583E-01
   C      -0.83153791429806E-01    -0.67419672714473E-01     0.71266999125973E-01
   C       0.10156043813997E+00     0.47947977799277E-01     0.52978233505713E-01
   C       0.72756545103995E-01    -0.24876056677278E-01    -0.50320313894817E-01
   C      -0.76874947372368E-02    -0.35743254217207E-01     0.13376134826211E-01
   C       0.55722675934827E-01    -0.14943220270670E+00     0.53976269650056E-01
   C       0.48040382180687E-01     0.29510030943475E-01     0.11037304881431E+00
   C       0.13475187909570E+00    -0.44668642852806E-01    -0.25647881684816E-01
   C      -0.23183269313825E+00    -0.56516197958792E-02     0.35594503050640E-01
   C       0.12350290586671E-01     0.40863141756947E-01    -0.44000296851591E-01
   C      -0.11236776725490E+00    -0.14346457573254E+00    -0.21646332216217E-01
   C       0.21308319630315E-01     0.65648190675387E-01     0.63202888866681E-01
   C       0.37525954743595E-01    -0.19246233654967E-01     0.80877579816928E-01
   C      -0.12619723934328E-01     0.55898918869435E-01     0.47776740279845E-01
   C      -0.32897154167532E-01     0.75216643632617E-01     0.54860672627310E-03
   C      -0.19139955578253E-01    -0.84165622251454E-02    -0.53231996134114E-02
   C      -0.95633782624862E-02     0.76236967442075E-01    -0.11549348895409E-01
   C      -0.99308450099204E-01     0.41068913354718E-01    -0.51207789593509E-01
   C      -0.43061300863973E-01     0.91183535490559E-01    -0.49689640730336E-01
   C      -0.31789810634679E-01    -0.19441433301052E-01     0.61205658430630E-01
   C       0.24649712088377E-01    -0.18142869872633E-01    -0.36950615475950E-01
   C       0.27923497047895E-01     0.19228725883562E-01     0.22763221078258E-01
   C      -0.17174351652928E-01    -0.41928618467694E-01     0.17331515360843E+00
   C       0.77867610079590E-01     0.10459208851757E+00     0.18553123959998E-01
   C      -0.81428850442429E-01     0.33729093331634E-01    -0.19657604717333E-01
   C       0.25090501912421E-01     0.23948975717394E-01     0.14194707853074E+00
   C      -0.10271931180894E-01    -0.18123823351645E-01    -0.54837286572928E-01
   C       0.10888413617259E+00    -0.26446490105816E-01    -0.25859770182434E-01
   C       0.44813082231316E-01    -0.50030751872545E-01     0.87380485643449E-01
   C      -0.91298319847823E-01    -0.14517363190793E-01    -0.37316122344748E-03
   C       0.11401820410663E+00     0.68045230321541E-01     0.18163225809280E+00
   C      -0.24165838944399E-01    -0.80755053261585E-01     0.16299423195485E-01



   Partial temperatures (for each ionic specie) 
   Species  Temp (K)   Mean Square Displacement (a.u.)
        1   0.00E+00     0.0000E+00

  nfi     ekinc              temph  tempp     etot                 enthal               econs                econt              vnhh    xnhh0   vnhp    xnhp0
     10  189.389284794486173    0.0    0.00    -268.705513601399    -268.705513601399    -268.705513601399     -79.316228806913   0.0000   0.0000   0.0000   0.0000

   writing restart file (with schema): ./out/graphene_68.save/
     restart      :      0.88s CPU      3.57s WALL (       1 calls)
     11  159.229337730799216    0.0    0.00    -307.782791892213    -307.782791892213    -307.782791892213    -148.553454161414   0.0000   0.0000   0.0000   0.0000
     12  138.550302412788483    0.0    0.00    -349.216788805471    -349.216788805471    -349.216788805471    -210.666486392682   0.0000   0.0000   0.0000   0.0000
     13  118.065332584952159    0.0    0.00    -378.534915024845    -378.534915024845    -378.534915024845    -260.469582439893   0.0000   0.0000   0.0000   0.0000
     14  101.061287915604737    0.0    0.00    -405.149251243100    -405.149251243100    -405.149251243100    -304.087963327496   0.0000   0.0000   0.0000   0.0000
     15   87.886784233040714    0.0    0.00    -430.594695302355    -430.594695302355    -430.594695302355    -342.707911069314   0.0000   0.0000   0.0000   0.0000
     16   75.219839493376796    0.0    0.00    -449.632223533619    -449.632223533619    -449.632223533619    -374.412384040243   0.0000   0.0000   0.0000   0.0000
     17   64.853377002015066    0.0    0.00    -467.362805050014    -467.362805050014    -467.362805050014    -402.509428047999   0.0000   0.0000   0.0000   0.0000
     18   56.078951738080399    0.0    0.00    -483.119332483765    -483.119332483765    -483.119332483765    -427.040380745685   0.0000   0.0000   0.0000   0.0000
     19   47.448230432771837    0.0    0.00    -494.674147707411    -494.674147707411    -494.674147707411    -447.225917274639   0.0000   0.0000   0.0000   0.0000

 * Physical Quantities at step:    20

   from rhoofr: total integrated electronic density
   in g-space =    392.000000   in r-space =   392.000000
     Total Electronic Pressure (GPa)       33.16693     20
     Pressure of Nuclei (GPa)             0.00000     20
     Pressure Total (GPa)            33.16693     20


                total energy =     -505.05045833234 Hartree a.u.
              kinetic energy =      451.09522 Hartree a.u.
        electrostatic energy =     -783.34490 Hartree a.u.
                         esr =        0.00006 Hartree a.u.
                       eself =     1251.08299 Hartree a.u.
      pseudopotential energy =      -14.92785 Hartree a.u.
  n-l pseudopotential energy =        6.69166 Hartree a.u.
 exchange-correlation energy =     -164.56459 Hartree a.u.
           average potential =        0.00000 Hartree a.u.



   Eigenvalues (eV), kp =   1 , spin =  1

  -30.26  -29.68  -29.41  -29.31  -29.20  -29.02  -28.78  -28.64  -28.58  -28.49
  -28.43  -28.01  -27.93  -27.83  -27.68  -27.61  -27.45  -27.34  -27.23  -27.12
  -27.07  -26.84  -26.79  -26.65  -26.31  -26.15  -25.99  -25.89  -25.84  -25.78
  -25.66  -25.60  -25.55  -25.28  -25.08  -24.99  -24.88  -24.75  -24.48  -24.32
  -24.19  -23.97  -23.84  -23.76  -23.68  -23.56  -23.54  -23.46  -23.28  -23.23
  -23.00  -22.92  -22.89  -22.71  -22.51  -22.40  -22.38  -21.96  -21.85  -21.75
  -21.65  -21.56  -21.19  -21.13  -21.04  -20.94  -20.72  -20.56  -20.42  -20.30
  -20.18  -20.09  -20.02  -19.94  -19.93  -19.84  -19.82  -19.67  -19.37  -19.17
  -19.04  -18.83  -18.59  -18.48  -18.37  -18.29  -18.28  -18.12  -18.09  -17.98
  -17.94  -17.83  -17.73  -17.63  -17.50  -17.48  -17.43  -17.34  -17.23  -17.11
  -17.06  -17.04  -16.98  -16.75  -16.66  -16.58  -16.49  -16.46  -16.30  -16.24
  -16.22  -16.12  -16.03  -15.95  -15.89  -15.75  -15.71  -15.64  -15.62  -15.50
  -15.46  -15.41  -15.29  -15.24  -15.06  -15.05  -14.91  -14.84  -14.74  -14.70
  -14.61  -14.50  -14.47  -14.35  -14.26  -14.21  -14.07  -14.02  -13.94  -13.77
  -13.66  -13.37  -13.32  -13.27  -13.08  -13.05  -12.84  -12.76  -12.70  -12.53
  -12.42  -12.17  -12.11  -11.97  -11.91  -11.74  -11.58  -11.49  -11.35  -11.32
  -11.14  -10.90  -10.57  -10.53  -10.42  -10.40  -10.24  -10.02   -9.86   -9.77
   -9.65   -9.44   -9.30   -9.15   -8.77   -8.42   -8.18   -8.03   -7.33   -7.21
   -6.85   -6.68   -6.59   -6.17   -5.80   -5.19   -4.91   -4.30   -4.00   -3.36
   -3.20   -2.75   -2.10   -1.06   -0.83   -0.10


   CELL_PARAMETERS
   32.65212694  -16.32606347    0.00000000
    0.00000000   28.27757141    0.00000000
    0.00000000    0.00000000   28.34589187

   System Density [g/cm^3] :              0.5039705731


   System Volume [A.U.^3] :          26172.4097023465


   Center of mass square displacement (a.u.):   0.000000

   Total stress (GPa)
       45.11508778        -0.20240266         0.16556465
       -0.20240266        44.71306998        -0.04386275
        0.16556466        -0.04386275         9.67261769
   ATOMIC_POSITIONS
   C      -0.23180128195139E+01     0.40396462687697E+01     0.14185334149364E+02
   C       0.23323065423689E+01     0.40396462687697E+01     0.14172945934693E+02
   C       0.69968961046669E+01     0.40396462687697E+01     0.14172945934693E+02
   C       0.11661485666965E+02     0.40396462687697E+01     0.14172945934693E+02
   C       0.16326075229263E+02     0.40396462687697E+01     0.14172945934693E+02
   C       0.20990664791561E+02     0.40396462687697E+01     0.14172945934693E+02
   C       0.25655254353859E+02     0.40396462687697E+01     0.14172945934693E+02
   C      -0.46645778011730E+01     0.80792993279375E+01     0.14172945934693E+02
   C       0.11761125029351E-04     0.80792993279375E+01     0.14172945934693E+02
   C       0.46646013234231E+01     0.80792993279375E+01     0.14172945934693E+02
   C       0.93291908857212E+01     0.80792993279375E+01     0.14172945934693E+02
   C       0.13993780448019E+02     0.80792993279375E+01     0.14172945934693E+02
   C       0.18658370010317E+02     0.80792993279375E+01     0.14172945934693E+02
   C       0.23322959572615E+02     0.80792993279375E+01     0.14172945934693E+02
   C      -0.69968725824169E+01     0.12118952387105E+02     0.14172945934693E+02
   C      -0.23322830201188E+01     0.12118952387105E+02     0.14172945934693E+02
   C       0.23323065421793E+01     0.12118952387105E+02     0.14172945934693E+02
   C       0.69968961044773E+01     0.12118952387105E+02     0.14172945934693E+02
   C       0.11661485666775E+02     0.12118952387105E+02     0.14172945934693E+02
   C       0.16326075229073E+02     0.12118952387105E+02     0.14172945934693E+02
   C       0.20990664791372E+02     0.12118952387105E+02     0.14172945934693E+02
   C      -0.93291673636607E+01     0.16158605446273E+02     0.14172945934693E+02
   C      -0.46645778013627E+01     0.16158605446273E+02     0.14172945934693E+02
   C       0.11760935417899E-04     0.16158605446273E+02     0.14172945934693E+02
   C       0.46646013232335E+01     0.16158605446273E+02     0.14172945934693E+02
   C       0.93291908855316E+01     0.16158605446273E+02     0.14172945934693E+02
   C       0.13993780447830E+02     0.16158605446273E+02     0.14172945934693E+02
   C       0.18658370010128E+02     0.16158605446273E+02     0.14172945934693E+02
   C      -0.11661462144905E+02     0.20198258505441E+02     0.14172945934693E+02
   C      -0.69968725826065E+01     0.20198258505441E+02     0.14172945934693E+02
   C      -0.23322830203084E+01     0.20198258505441E+02     0.14172945934693E+02
   C       0.23323065419896E+01     0.20198258505441E+02     0.14172945934693E+02
   C       0.69968961042877E+01     0.20198258505441E+02     0.14172945934693E+02
   C       0.11661485666586E+02     0.20198258505441E+02     0.14172945934693E+02
   C       0.16326075228884E+02     0.20198258505441E+02     0.14172945934693E+02
   C      -0.13993756926148E+02     0.24237911564609E+02     0.14172945934693E+02
   C      -0.93291673638503E+01     0.24237911564609E+02     0.14172945934693E+02
   C      -0.46645778015523E+01     0.24237911564609E+02     0.14172945934693E+02
   C       0.11760745801916E-04     0.24237911564609E+02     0.14172945934693E+02
   C       0.46646013230439E+01     0.24237911564609E+02     0.14172945934693E+02
   C       0.93291908853419E+01     0.24237911564609E+02     0.14172945934693E+02
   C       0.13993780447640E+02     0.24237911564609E+02     0.14172945934693E+02
   C      -0.16326051707392E+02     0.28277564623777E+02     0.14172945934693E+02
   C      -0.11661462145094E+02     0.28277564623777E+02     0.14172945934693E+02
   C      -0.69968725827961E+01     0.28277564623777E+02     0.14172945934693E+02
   C      -0.23322830204980E+01     0.28277564623777E+02     0.14172945934693E+02
   C       0.23323065418000E+01     0.28277564623777E+02     0.14172945934693E+02
   C       0.69968961040981E+01     0.28277564623777E+02     0.14172945934693E+02
   C       0.11661485666396E+02     0.28277564623777E+02     0.14172945934693E+02
   C       0.23323065293342E+01     0.13465444415623E+01     0.14172945934693E+02
   C       0.69968960916323E+01     0.13465444415623E+01     0.14172945934693E+02
   C       0.11661485653930E+02     0.13465444415623E+01     0.14172945934693E+02
   C       0.16326075216228E+02     0.13465444415623E+01     0.14172945934693E+02
   C       0.20990664778526E+02     0.13465444415623E+01     0.14172945934693E+02
   C       0.25655254340825E+02     0.13465444415623E+01     0.14172945934693E+02
   C       0.30319843903123E+02     0.13465444415623E+01     0.14172945934693E+02
   C       0.11748090345174E-04     0.53861975007301E+01     0.14172945934693E+02
   C       0.46646013103884E+01     0.53861975007301E+01     0.14172945934693E+02
   C       0.93291908726865E+01     0.53861975007301E+01     0.14172945934693E+02
   C       0.13993780434985E+02     0.53861975007301E+01     0.14172945934693E+02
   C       0.18658369997283E+02     0.53861975007301E+01     0.14172945934693E+02
   C       0.23322959559581E+02     0.53861975007301E+01     0.14172945934693E+02
   C       0.27987549121879E+02     0.53861975007301E+01     0.14172945934693E+02
   C      -0.23322830331535E+01     0.94258505598979E+01     0.14172945934693E+02
   C       0.23323065291446E+01     0.94258505598979E+01     0.14172945934693E+02
   C       0.69968960914426E+01     0.94258505598979E+01     0.14172945934693E+02
   C       0.11661485653741E+02     0.94258505598979E+01     0.14172945934693E+02
   C       0.16326075216039E+02     0.94258505598979E+01     0.14172945934693E+02
   C       0.20990664778337E+02     0.94258505598979E+01     0.14172945934693E+02
   C       0.25655254340635E+02     0.94258505598979E+01     0.14172945934693E+02
   C      -0.46645778143973E+01     0.13465503619066E+02     0.14172945934693E+02
   C       0.11747900729635E-04     0.13465503619066E+02     0.14172945934693E+02
   C       0.46646013101988E+01     0.13465503619066E+02     0.14172945934693E+02
   C       0.93291908724969E+01     0.13465503619066E+02     0.14172945934693E+02
   C       0.13993780434795E+02     0.13465503619066E+02     0.14172945934693E+02
   C       0.18658369997093E+02     0.13465503619066E+02     0.14172945934693E+02
   C       0.23322959559391E+02     0.13465503619066E+02     0.14172945934693E+02
   C      -0.69968725956412E+01     0.17505156678234E+02     0.14172945934693E+02
   C      -0.23322830333431E+01     0.17505156678234E+02     0.14172945934693E+02
   C       0.23323065289550E+01     0.17505156678234E+02     0.14172945934693E+02
   C       0.69968960912530E+01     0.17505156678234E+02     0.14172945934693E+02
   C       0.11661485653551E+02     0.17505156678234E+02     0.14172945934693E+02
   C       0.16326075215849E+02     0.17505156678234E+02     0.14172945934693E+02
   C       0.20990664778147E+02     0.17505156678234E+02     0.14172945934693E+02
   C      -0.93291673768850E+01     0.21544809737401E+02     0.14172945934693E+02
   C      -0.46645778145870E+01     0.21544809737401E+02     0.14172945934693E+02
   C       0.11747711115428E-04     0.21544809737401E+02     0.14172945934693E+02
   C       0.46646013100092E+01     0.21544809737401E+02     0.14172945934693E+02
   C       0.93291908723073E+01     0.21544809737401E+02     0.14172945934693E+02
   C       0.13993780434605E+02     0.21544809737401E+02     0.14172945934693E+02
   C       0.18658369996903E+02     0.21544809737401E+02     0.14172945934693E+02
   C      -0.11661462158129E+02     0.25584462796569E+02     0.14172945934693E+02
   C      -0.69968725958308E+01     0.25584462796569E+02     0.14172945934693E+02
   C      -0.23322830335327E+01     0.25584462796569E+02     0.14172945934693E+02
   C       0.23323065287653E+01     0.25584462796569E+02     0.14172945934693E+02
   C       0.69968960910634E+01     0.25584462796569E+02     0.14172945934693E+02
   C       0.11661485653361E+02     0.25584462796569E+02     0.14172945934693E+02
   C       0.16326075215660E+02     0.25584462796569E+02     0.14172945934693E+02

   ATOMIC_VELOCITIES
   C       0.00000000000000E+00     0.00000000000000E+00     0.00000000000000E+00
   C       0.00000000000000E+00     0.00000000000000E+00     0.00000000000000E+00
   C       0.00000000000000E+00     0.00000000000000E+00     0.00000000000000E+00
   C       0.00000000000000E+00     0.00000000000000E+00     0.00000000000000E+00
   C       0.00000000000000E+00     0.00000000000000E+00     0.00000000000000E+00
   C       0.00000000000000E+00     0.00000000000000E+00     0.00000000000000E+00
   C       0.00000000000000E+00     0.00000000000000E+00     0.00000000000000E+00
   C       0.00000000000000E+00     0.00000000000000E+00     0.00000000000000E+00
   C       0.00000000000000E+00     0.00000000000000E+00     0.00000000000000E+00
   C       0.00000000000000E+00     0.00000000000000E+00     0.00000000000000E+00
   C       0.00000000000000E+00     0.00000000000000E+00     0.00000000000000E+00
   C       0.00000000000000E+00     0.00000000000000E+00     0.00000000000000E+00
   C       0.00000000000000E+00     0.00000000000000E+00     0.00000000000000E+00
   C       0.00000000000000E+00     0.00000000000000E+00     0.00000000000000E+00
   C       0.00000000000000E+00     0.00000000000000E+00     0.00000000000000E+00
   C       0.00000000000000E+00     0.00000000000000E+00     0.00000000000000E+00
   C       0.00000000000000E+00     0.00000000000000E+00     0.00000000000000E+00
   C       0.00000000000000E+00     0.00000000000000E+00     0.00000000000000E+00
   C       0.00000000000000E+00     0.00000000000000E+00     0.00000000000000E+00
   C       0.00000000000000E+00     0.00000000000000E+00     0.00000000000000E+00
   C       0.00000000000000E+00     0.00000000000000E+00     0.00000000000000E+00
   C       0.00000000000000E+00     0.00000000000000E+00     0.00000000000000E+00
   C       0.00000000000000E+00     0.00000000000000E+00     0.00000000000000E+00
   C       0.00000000000000E+00     0.00000000000000E+00     0.00000000000000E+00
   C       0.00000000000000E+00     0.00000000000000E+00     0.00000000000000E+00
   C       0.00000000000000E+00     0.00000000000000E+00     0.00000000000000E+00
   C       0.00000000000000E+00     0.00000000000000E+00     0.00000000000000E+00
   C       0.00000000000000E+00     0.00000000000000E+00     0.00000000000000E+00
   C       0.00000000000000E+00     0.00000000000000E+00     0.00000000000000E+00
   C       0.00000000000000E+00     0.00000000000000E+00     0.00000000000000E+00
   C       0.00000000000000E+00     0.00000000000000E+00     0.00000000000000E+00
   C       0.00000000000000E+00     0.00000000000000E+00     0.00000000000000E+00
   C       0.00000000000000E+00     0.00000000000000E+00     0.00000000000000E+00
   C       0.00000000000000E+00     0.00000000000000E+00     0.00000000000000E+00
   C       0.00000000000000E+00     0.00000000000000E+00     0.00000000000000E+00
   C       0.00000000000000E+00     0.00000000000000E+00     0.00000000000000E+00
   C       0.00000000000000E+00     0.00000000000000E+00     0.00000000000000E+00
   C       0.00000000000000E+00     0.00000000000000E+00     0.00000000000000E+00
   C       0.00000000000000E+00     0.00000000000000E+00     0.00000000000000E+00
   C       0.00000000000000E+00     0.00000000000000E+00     0.00000000000000E+00
   C       0.00000000000000E+00     0.00000000000000E+00     0.00000000000000E+00
   C       0.00000000000000E+00     0.00000000000000E+00     0.00000000000000E+00
   C       0.00000000000000E+00     0.00000000000000E+00     0.00000000000000E+00
   C       0.00000000000000E+00     0.00000000000000E+00     0.00000000000000E+00
   C       0.00000000000000E+00     0.00000000000000E+00     0.00000000000000E+00
   C       0.00000000000000E+00     0.00000000000000E+00     0.00000000000000E+00
   C       0.00000000000000E+00     0.00000000000000E+00     0.00000000000000E+00
   C       0.00000000000000E+00     0.00000000000000E+00     0.00000000000000E+00
   C       0.00000000000000E+00     0.00000000000000E+00     0.00000000000000E+00
   C       0.00000000000000E+00     0.00000000000000E+00     0.00000000000000E+00
   C       0.00000000000000E+00     0.00000000000000E+00     0.00000000000000E+00
   C       0.00000000000000E+00     0.00000000000000E+00     0.00000000000000E+00
   C       0.00000000000000E+00     0.00000000000000E+00     0.00000000000000E+00
   C       0.00000000000000E+00     0.00000000000000E+00     0.00000000000000E+00
   C       0.00000000000000E+00     0.00000000000000E+00     0.00000000000000E+00
   C       0.00000000000000E+00     0.00000000000000E+00     0.00000000000000E+00
   C       0.00000000000000E+00     0.00000000000000E+00     0.00000000000000E+00
   C       0.00000000000000E+00     0.00000000000000E+00     0.00000000000000E+00
   C       0.00000000000000E+00     0.00000000000000E+00     0.00000000000000E+00
   C       0.00000000000000E+00     0.00000000000000E+00     0.00000000000000E+00
   C       0.00000000000000E+00     0.00000000000000E+00     0.00000000000000E+00
   C       0.00000000000000E+00     0.00000000000000E+00     0.00000000000000E+00
   C       0.00000000000000E+00     0.00000000000000E+00     0.00000000000000E+00
   C       0.00000000000000E+00     0.00000000000000E+00     0.00000000000000E+00
   C       0.00000000000000E+00     0.00000000000000E+00     0.00000000000000E+00
   C       0.00000000000000E+00     0.00000000000000E+00     0.00000000000000E+00
   C       0.00000000000000E+00     0.00000000000000E+00     0.00000000000000E+00
   C       0.00000000000000E+00     0.00000000000000E+00     0.00000000000000E+00
   C       0.00000000000000E+00     0.00000000000000E+00     0.00000000000000E+00
   C       0.00000000000000E+00     0.00000000000000E+00     0.00000000000000E+00
   C       0.00000000000000E+00     0.00000000000000E+00     0.00000000000000E+00
   C       0.00000000000000E+00     0.00000000000000E+00     0.00000000000000E+00
   C       0.00000000000000E+00     0.00000000000000E+00     0.00000000000000E+00
   C       0.00000000000000E+00     0.00000000000000E+00     0.00000000000000E+00
   C       0.00000000000000E+00     0.00000000000000E+00     0.00000000000000E+00
   C       0.00000000000000E+00     0.00000000000000E+00     0.00000000000000E+00
   C       0.00000000000000E+00     0.00000000000000E+00     0.00000000000000E+00
   C       0.00000000000000E+00     0.00000000000000E+00     0.00000000000000E+00
   C       0.00000000000000E+00     0.00000000000000E+00     0.00000000000000E+00
   C       0.00000000000000E+00     0.00000000000000E+00     0.00000000000000E+00
   C       0.00000000000000E+00     0.00000000000000E+00     0.00000000000000E+00
   C       0.00000000000000E+00     0.00000000000000E+00     0.00000000000000E+00
   C       0.00000000000000E+00     0.00000000000000E+00     0.00000000000000E+00
   C       0.00000000000000E+00     0.00000000000000E+00     0.00000000000000E+00
   C       0.00000000000000E+00     0.00000000000000E+00     0.00000000000000E+00
   C       0.00000000000000E+00     0.00000000000000E+00     0.00000000000000E+00
   C       0.00000000000000E+00     0.00000000000000E+00     0.00000000000000E+00
   C       0.00000000000000E+00     0.00000000000000E+00     0.00000000000000E+00
   C       0.00000000000000E+00     0.00000000000000E+00     0.00000000000000E+00
   C       0.00000000000000E+00     0.00000000000000E+00     0.00000000000000E+00
   C       0.00000000000000E+00     0.00000000000000E+00     0.00000000000000E+00
   C       0.00000000000000E+00     0.00000000000000E+00     0.00000000000000E+00
   C       0.00000000000000E+00     0.00000000000000E+00     0.00000000000000E+00
   C       0.00000000000000E+00     0.00000000000000E+00     0.00000000000000E+00
   C       0.00000000000000E+00     0.00000000000000E+00     0.00000000000000E+00
   C       0.00000000000000E+00     0.00000000000000E+00     0.00000000000000E+00
   C       0.00000000000000E+00     0.00000000000000E+00     0.00000000000000E+00
   C       0.00000000000000E+00     0.00000000000000E+00     0.00000000000000E+00

   Forces acting on atoms (au):
   C       0.88476296846760E-02    -0.23293644690796E-01     0.32468733010442E-01
   C       0.85469773343065E-01     0.34788676636009E-02    -0.25303487206933E-02
   C      -0.22010712132250E-01     0.30234634279415E-01    -0.25448748688603E-01
   C      -0.22864692606393E-01     0.60167164365596E-01    -0.75835598579871E-03
   C      -0.85591109029562E-03    -0.45422139391497E-02     0.10810295758394E-01
   C       0.32629076330156E-01     0.16179152691806E-01    -0.67744506291003E-01
   C      -0.14397185298887E-01     0.35787362997076E-01    -0.25221743427436E-01
   C       0.39734550942237E-01    -0.15407807815842E-01     0.11296525498914E-01
   C      -0.16593497320590E-01     0.40751248805455E-01     0.20448004288297E-01
   C      -0.82744177778545E-02     0.10290720294310E-01     0.54444525736483E-01
   C      -0.93453206346315E-02     0.12879002473700E-01    -0.23022874122780E-02
   C      -0.17147725715258E-01     0.17574151167864E-01    -0.34686100633497E-01
   C       0.27399415561920E-01    -0.38598145501399E-01    -0.45906866853329E-01
   C      -0.19131847204743E-01    -0.94451081644200E-02     0.24791891158480E-01
   C      -0.51995670395241E-01     0.15094537591106E-01     0.21625842013785E-01
   C       0.45360643213095E-02    -0.16843872670917E-01    -0.16100823111590E-01
   C      -0.18405534128161E-01     0.41887533446234E-01     0.12756063723015E-01
   C       0.21360333863260E-01    -0.41755121960182E-01    -0.63695138857443E-02
   C       0.88385556751241E-02    -0.93652281612733E-01     0.14514481586025E-01
   C      -0.68707384133457E-02     0.18101807442083E-02    -0.65524994457360E-02
   C      -0.19877241063699E-02     0.17970594624297E-01    -0.12418765085374E-01
   C       0.37277274841699E-01     0.19928097942106E-01     0.90491944165409E-02
   C       0.89573436013796E-02     0.18953318289715E-01     0.36572367859160E-01
   C       0.11381708558012E-01    -0.15135844899333E-01     0.50903649363401E-02
   C      -0.53917042445598E-01    -0.39774825911897E-01     0.14695627934401E-01
   C       0.82423576456577E-02     0.22920622690256E-01    -0.24795452549253E-01
   C      -0.28698117260008E-01     0.23969185934668E-01    -0.28517463947455E-02
   C      -0.15355800817832E-01    -0.74909004033650E-03    -0.16438788431292E-01
   C       0.10603891968519E-01     0.34621419107042E-01    -0.57965120226424E-01
   C      -0.32316087086720E-01    -0.56364204046234E-01    -0.42243798833316E-01
   C       0.44552594682720E-01    -0.15258337559866E-01     0.11159905819858E-01
   C       0.31740783679831E-01     0.49495606359752E-01     0.38104910255306E-01
   C      -0.56932143500152E-01     0.92436613288270E-02    -0.17390214358146E-01
   C       0.15832127465347E-01    -0.46126470437015E-01    -0.65812016894254E-01
   C       0.11114407224875E-01    -0.27759214856452E-01     0.27085415819994E-01
   C      -0.59485247125240E-01    -0.20634575360648E-02     0.67050607638671E-02
   C       0.78018961821199E-01    -0.50669427254248E-01     0.28116894323225E-02
   C       0.38684205023727E-01    -0.44796473896525E-01     0.89362375659736E-02
   C      -0.33729886446838E-01    -0.13372001937107E-01    -0.20548076383588E-01
   C      -0.39364282878085E-02     0.15106687179660E-01     0.73317187535056E-02
   C       0.13084584614671E-01     0.11813052131790E-01    -0.39077411979896E-01
   C      -0.67010891054618E-02     0.61548106856431E-01    -0.51530598881173E-01
   C      -0.14929769281690E-02     0.18759828804710E-01    -0.11959131269072E-01
   C       0.37417917797536E-01     0.97248154185177E-03    -0.29791879217585E-01
   C       0.35526816789707E-01    -0.27440929493160E-01    -0.11169214402038E-01
   C       0.85028972159429E-01    -0.10600303901987E-01     0.54060130493904E-02
   C      -0.30613225497952E-01    -0.20458412814614E-02    -0.41819507520756E-01
   C       0.19798616191681E-01     0.28377922907507E-01    -0.26680111611408E-02
   C       0.27246735622981E-01     0.59151195639147E-01    -0.43630593312043E-01
   C       0.54494336738848E-02     0.32934978573492E-01     0.49095783353638E-02
   C       0.43307976186831E-01    -0.85420947893067E-02    -0.19940971397954E-01
   C      -0.16666540571649E-01    -0.39513753875838E-02    -0.35238429759566E-01
   C       0.12824577145300E-01    -0.56711375139626E-01    -0.21177355469257E-01
   C      -0.15022183559196E-01    -0.11192939244358E-01    -0.16694551863867E-01
   C      -0.32276565419981E-01     0.51249530536004E-01     0.71852957890716E-02
   C      -0.37934094370082E-01     0.18637957291228E-01    -0.34584354688540E-01
   C      -0.13216895917166E-01     0.18320124157731E-03    -0.17500356302556E-02
   C       0.19441608425098E-01     0.13859432434812E-01    -0.28793373742062E-01
   C       0.71900720022486E-01    -0.71775402178354E-02     0.22333125416760E-01
   C      -0.28381532299610E-01    -0.61856740661038E-01     0.10925834564367E-01
   C      -0.18990554209724E-01    -0.10146024705068E-01    -0.28763487772895E-01
   C      -0.46156636663467E-01     0.42267719690389E-01    -0.31299646712255E-01
   C      -0.60822334776491E-01     0.68251975781627E-01    -0.35544706898787E-01
   C       0.32886718371472E-01    -0.62906684134866E-01    -0.37115262305052E-01
   C       0.17939949666733E-01    -0.59191651992810E-01     0.17946643921880E-01
   C       0.52677377595154E-01     0.30799469429042E-01    -0.18754333237632E-01
   C      -0.30654652710083E-01     0.14907686080773E-01     0.12428666300396E-01
   C       0.63736803812094E-02     0.22158566846678E-01     0.21379360250483E-03
   C       0.76160965109095E-01    -0.79873637818915E-01     0.19358624241133E-01
   C      -0.61573091542647E-01     0.37512105707691E-01     0.36314696217032E-01
   C      -0.90437927190543E-01     0.49223191932828E-02    -0.14421014910898E-01
   C       0.27743591652687E-01    -0.18070701559408E-01    -0.36739878254533E-01
   C       0.15947754509272E-01     0.90549019556100E-02    -0.70290220718977E-01
   C      -0.55232562509387E-01    -0.15207325097134E-01     0.90532655434851E-02
   C      -0.47843809487883E-02    -0.21112253658605E-01    -0.55483493422850E-01
   C       0.64969169367672E-01    -0.29484694677922E-01    -0.24917859040477E-01
   C       0.23926573762976E-01     0.74829731672780E-01    -0.23935967354841E-02
   C      -0.98382629905487E-01     0.18103921241185E-01     0.67693637847893E-02
   C       0.21143953128001E-01     0.43881270111207E-01    -0.12195777525299E-01
   C       0.55997741100082E-01    -0.58483693697961E-01    -0.21994826047825E-01
   C      -0.17162382336562E-01     0.42790945257251E-02    -0.68848190050615E-01
   C      -0.86752963838798E-01     0.10307016100619E-01    -0.95150248716239E-02
   C       0.23230851301274E-01     0.43221919543571E-01    -0.17565218372954E-01
   C       0.42791635142895E-01     0.27677659409376E-02     0.23482095069770E-01
   C      -0.80996919372267E-02     0.58058211566947E-03    -0.19097378894879E-01
   C      -0.14174626609036E-01     0.58833872590162E-01    -0.53916094475051E-02
   C       0.67788960121024E-02     0.21864090956625E-01    -0.40514938722871E-01
   C      -0.33056983516911E-01     0.24327740844423E-01    -0.16482287748281E-01
   C      -0.45617505457455E-01     0.90272432827552E-02    -0.52603600473286E-01
   C      -0.17297107966828E-01    -0.33745618602076E-01    -0.52788266492661E-01
   C       0.24401249622772E-01     0.15234821180492E-02    -0.23966652679169E-01
   C      -0.22155775402169E-01     0.84692537215835E-01    -0.77380940953773E-02
   C      -0.42612229712054E-01     0.38465607811809E-01     0.28446236601338E-01
   C      -0.21806035327696E-01     0.52739067789697E-02     0.51866232205401E-02
   C       0.34889041323816E-01    -0.87609778378926E-02    -0.52479250067171E-01
   C      -0.40936659558065E-01     0.19604102660307E-01    -0.46328662588176E-01
   C       0.21529679208765E-02    -0.17459028439909E-01    -0.80278072015282E-02
   C      -0.35666336024364E-01     0.27791231320291E-01    -0.55154493368187E-01



   Partial temperatures (for each ionic specie) 
   Species  Temp (K)   Mean Square Displacement (a.u.)
        1   0.00E+00     0.0000E+00

  nfi     ekinc              temph  tempp     etot                 enthal               econs                econt              vnhh    xnhh0   vnhp    xnhp0
     20   40.222355888345270    0.0    0.00    -505.050458332342    -505.050458332342    -505.050458332342    -464.828102443997   0.0000   0.0000   0.0000   0.0000

   writing restart file (with schema): ./out/graphene_68.save/
     restart      :      1.75s CPU      7.56s WALL (       2 calls)
     21   34.044381938474132    0.0    0.00    -513.826907846842    -513.826907846842    -513.826907846842    -479.782525908368   0.0000   0.0000   0.0000   0.0000
     22   28.371773675954593    0.0    0.00    -520.340831535775    -520.340831535775    -520.340831535775    -491.969057859821   0.0000   0.0000   0.0000   0.0000
     23   23.842848359025226    0.0    0.00    -526.306855738206    -526.306855738206    -526.306855738206    -502.464007379181   0.0000   0.0000   0.0000   0.0000
     24   20.079480024348037    0.0    0.00    -531.360459983763    -531.360459983763    -531.360459983763    -511.280979959415   0.0000   0.0000   0.0000   0.0000
     25   16.749157935012168    0.0    0.00    -535.239876326485    -535.239876326485    -535.239876326485    -518.490718391472   0.0000   0.0000   0.0000   0.0000
     26   14.121734152817057    0.0    0.00    -538.823465875173    -538.823465875173    -538.823465875173    -524.701731722355   0.0000   0.0000   0.0000   0.0000
     27   11.929226255956166    0.0    0.00    -541.847921870035    -541.847921870035    -541.847921870035    -529.918695614079   0.0000   0.0000   0.0000   0.0000
     28   10.007945957728289    0.0    0.00    -544.230668459721    -544.230668459721    -544.230668459721    -534.222722501993   0.0000   0.0000   0.0000   0.0000
     29    8.492233401216932    0.0    0.00    -546.437602055174    -546.437602055174    -546.437602055174    -537.945368653957   0.0000   0.0000   0.0000   0.0000

 * Physical Quantities at step:    30

   from rhoofr: total integrated electronic density
   in g-space =    392.000000   in r-space =   392.000000
     Total Electronic Pressure (GPa)        5.85697     30
     Pressure of Nuclei (GPa)             0.00000     30
     Pressure Total (GPa)             5.85697     30


                total energy =     -548.30556888968 Hartree a.u.
              kinetic energy =      414.33556 Hartree a.u.
        electrostatic energy =     -789.28880 Hartree a.u.
                         esr =        0.00006 Hartree a.u.
                       eself =     1251.08299 Hartree a.u.
      pseudopotential energy =      -15.17407 Hartree a.u.
  n-l pseudopotential energy =       10.35665 Hartree a.u.
 exchange-correlation energy =     -168.53491 Hartree a.u.
           average potential =        0.00000 Hartree a.u.



   Eigenvalues (eV), kp =   1 , spin =  1

  -23.36  -23.03  -22.86  -22.82  -22.78  -22.72  -22.57  -22.10  -21.96  -21.89
  -21.85  -21.83  -21.72  -21.60  -21.49  -21.41  -21.34  -21.30  -21.21  -20.31
  -20.25  -20.18  -20.13  -20.10  -20.03  -19.97  -19.95  -19.93  -19.91  -19.83
  -19.80  -19.22  -19.22  -19.10  -19.08  -19.04  -19.03  -18.04  -18.01  -17.96
  -17.88  -17.84  -17.80  -17.73  -17.70  -17.68  -17.62  -17.58  -17.51  -16.94
  -16.88  -16.83  -16.81  -16.75  -16.72  -16.02  -15.94  -15.91  -15.85  -15.84
  -15.76  -15.43  -15.35  -15.34  -15.29  -15.24  -15.15  -14.25  -14.15  -14.10
  -14.08  -14.03  -14.00  -13.97  -13.95  -13.93  -13.91  -13.85  -13.82  -13.79
  -13.72  -13.68  -13.59  -13.55  -13.13  -12.44  -12.33  -12.31  -12.25  -12.21
  -12.10  -11.98  -11.91  -11.85  -11.73  -11.69  -11.60  -11.50  -11.49  -11.45
  -11.38  -11.36  -11.31  -11.24  -11.21  -11.18  -11.12  -11.09  -10.95  -10.87
  -10.84  -10.81  -10.79  -10.77  -10.74  -10.66  -10.61  -10.55  -10.50  -10.40
  -10.36  -10.34  -10.28  -10.21  -10.10  -10.01   -9.99   -9.83   -9.75   -9.72
   -9.68   -9.64   -9.60   -9.55   -9.52   -9.50   -9.49   -9.45   -9.41   -9.28
   -9.21   -9.15   -9.11   -9.08   -9.03   -9.01   -8.93   -8.85   -8.76   -8.67
   -8.57   -8.42   -8.34   -8.23   -8.15   -8.03   -8.00   -7.98   -7.82   -7.70
   -7.66   -7.56   -7.50   -7.48   -7.48   -7.44   -7.26   -7.16   -6.97   -6.91
   -6.80   -6.63   -6.49   -6.34   -6.22   -6.06   -5.88   -5.75   -5.60   -5.53
   -5.25   -5.08   -5.01   -4.77   -4.49   -4.39   -3.93   -3.37   -3.18   -3.00
   -2.54   -2.01   -1.67   -0.84   -0.35    0.20


   CELL_PARAMETERS
   32.65212694  -16.32606347    0.00000000
    0.00000000   28.27757141    0.00000000
    0.00000000    0.00000000   28.34589187

   System Density [g/cm^3] :              0.5039705731


   System Volume [A.U.^3] :          26172.4097023465


   Center of mass square displacement (a.u.):   0.000000

   Total stress (GPa)
        7.16451316        -0.01986953         0.01626732
       -0.01986953         6.36518117        -0.27794803
        0.01626729        -0.27794802         4.04122833
   ATOMIC_POSITIONS
   C      -0.23180128195139E+01     0.40396462687697E+01     0.14185334149364E+02
   C       0.23323065423689E+01     0.40396462687697E+01     0.14172945934693E+02
   C       0.69968961046669E+01     0.40396462687697E+01     0.14172945934693E+02
   C       0.11661485666965E+02     0.40396462687697E+01     0.14172945934693E+02
   C       0.16326075229263E+02     0.40396462687697E+01     0.14172945934693E+02
   C       0.20990664791561E+02     0.40396462687697E+01     0.14172945934693E+02
   C       0.25655254353859E+02     0.40396462687697E+01     0.14172945934693E+02
   C      -0.46645778011730E+01     0.80792993279375E+01     0.14172945934693E+02
   C       0.11761125029351E-04     0.80792993279375E+01     0.14172945934693E+02
   C       0.46646013234231E+01     0.80792993279375E+01     0.14172945934693E+02
   C       0.93291908857212E+01     0.80792993279375E+01     0.14172945934693E+02
   C       0.13993780448019E+02     0.80792993279375E+01     0.14172945934693E+02
   C       0.18658370010317E+02     0.80792993279375E+01     0.14172945934693E+02
   C       0.23322959572615E+02     0.80792993279375E+01     0.14172945934693E+02
   C      -0.69968725824169E+01     0.12118952387105E+02     0.14172945934693E+02
   C      -0.23322830201188E+01     0.12118952387105E+02     0.14172945934693E+02
[...]
   C       0.00000000000000E+00     0.00000000000000E+00     0.00000000000000E+00
   C       0.00000000000000E+00     0.00000000000000E+00     0.00000000000000E+00
   C       0.00000000000000E+00     0.00000000000000E+00     0.00000000000000E+00
   C       0.00000000000000E+00     0.00000000000000E+00     0.00000000000000E+00
   C       0.00000000000000E+00     0.00000000000000E+00     0.00000000000000E+00
   C       0.00000000000000E+00     0.00000000000000E+00     0.00000000000000E+00
   C       0.00000000000000E+00     0.00000000000000E+00     0.00000000000000E+00
   C       0.00000000000000E+00     0.00000000000000E+00     0.00000000000000E+00
   C       0.00000000000000E+00     0.00000000000000E+00     0.00000000000000E+00
   C       0.00000000000000E+00     0.00000000000000E+00     0.00000000000000E+00
   C       0.00000000000000E+00     0.00000000000000E+00     0.00000000000000E+00
   C       0.00000000000000E+00     0.00000000000000E+00     0.00000000000000E+00
   C       0.00000000000000E+00     0.00000000000000E+00     0.00000000000000E+00
   C       0.00000000000000E+00     0.00000000000000E+00     0.00000000000000E+00
   C       0.00000000000000E+00     0.00000000000000E+00     0.00000000000000E+00
   C       0.00000000000000E+00     0.00000000000000E+00     0.00000000000000E+00
   C       0.00000000000000E+00     0.00000000000000E+00     0.00000000000000E+00
   C       0.00000000000000E+00     0.00000000000000E+00     0.00000000000000E+00
   C       0.00000000000000E+00     0.00000000000000E+00     0.00000000000000E+00
   C       0.00000000000000E+00     0.00000000000000E+00     0.00000000000000E+00
   C       0.00000000000000E+00     0.00000000000000E+00     0.00000000000000E+00
   C       0.00000000000000E+00     0.00000000000000E+00     0.00000000000000E+00
   C       0.00000000000000E+00     0.00000000000000E+00     0.00000000000000E+00
   C       0.00000000000000E+00     0.00000000000000E+00     0.00000000000000E+00
   C       0.00000000000000E+00     0.00000000000000E+00     0.00000000000000E+00
   C       0.00000000000000E+00     0.00000000000000E+00     0.00000000000000E+00
   C       0.00000000000000E+00     0.00000000000000E+00     0.00000000000000E+00
   C       0.00000000000000E+00     0.00000000000000E+00     0.00000000000000E+00
   C       0.00000000000000E+00     0.00000000000000E+00     0.00000000000000E+00
   C       0.00000000000000E+00     0.00000000000000E+00     0.00000000000000E+00
   C       0.00000000000000E+00     0.00000000000000E+00     0.00000000000000E+00
   C       0.00000000000000E+00     0.00000000000000E+00     0.00000000000000E+00
   C       0.00000000000000E+00     0.00000000000000E+00     0.00000000000000E+00
   C       0.00000000000000E+00     0.00000000000000E+00     0.00000000000000E+00
   C       0.00000000000000E+00     0.00000000000000E+00     0.00000000000000E+00
   C       0.00000000000000E+00     0.00000000000000E+00     0.00000000000000E+00
   C       0.00000000000000E+00     0.00000000000000E+00     0.00000000000000E+00
   C       0.00000000000000E+00     0.00000000000000E+00     0.00000000000000E+00
   C       0.00000000000000E+00     0.00000000000000E+00     0.00000000000000E+00
   C       0.00000000000000E+00     0.00000000000000E+00     0.00000000000000E+00
   C       0.00000000000000E+00     0.00000000000000E+00     0.00000000000000E+00
   C       0.00000000000000E+00     0.00000000000000E+00     0.00000000000000E+00
   C       0.00000000000000E+00     0.00000000000000E+00     0.00000000000000E+00
   C       0.00000000000000E+00     0.00000000000000E+00     0.00000000000000E+00
   C       0.00000000000000E+00     0.00000000000000E+00     0.00000000000000E+00
   C       0.00000000000000E+00     0.00000000000000E+00     0.00000000000000E+00
   C       0.00000000000000E+00     0.00000000000000E+00     0.00000000000000E+00
   C       0.00000000000000E+00     0.00000000000000E+00     0.00000000000000E+00
   C       0.00000000000000E+00     0.00000000000000E+00     0.00000000000000E+00
   C       0.00000000000000E+00     0.00000000000000E+00     0.00000000000000E+00
   C       0.00000000000000E+00     0.00000000000000E+00     0.00000000000000E+00
   C       0.00000000000000E+00     0.00000000000000E+00     0.00000000000000E+00
   C       0.00000000000000E+00     0.00000000000000E+00     0.00000000000000E+00
   C       0.00000000000000E+00     0.00000000000000E+00     0.00000000000000E+00
   C       0.00000000000000E+00     0.00000000000000E+00     0.00000000000000E+00
   C       0.00000000000000E+00     0.00000000000000E+00     0.00000000000000E+00
   C       0.00000000000000E+00     0.00000000000000E+00     0.00000000000000E+00
   C       0.00000000000000E+00     0.00000000000000E+00     0.00000000000000E+00
   C       0.00000000000000E+00     0.00000000000000E+00     0.00000000000000E+00
   C       0.00000000000000E+00     0.00000000000000E+00     0.00000000000000E+00
   C       0.00000000000000E+00     0.00000000000000E+00     0.00000000000000E+00
   C       0.00000000000000E+00     0.00000000000000E+00     0.00000000000000E+00
   C       0.00000000000000E+00     0.00000000000000E+00     0.00000000000000E+00
   C       0.00000000000000E+00     0.00000000000000E+00     0.00000000000000E+00
   C       0.00000000000000E+00     0.00000000000000E+00     0.00000000000000E+00
   C       0.00000000000000E+00     0.00000000000000E+00     0.00000000000000E+00
   C       0.00000000000000E+00     0.00000000000000E+00     0.00000000000000E+00
   C       0.00000000000000E+00     0.00000000000000E+00     0.00000000000000E+00
   C       0.00000000000000E+00     0.00000000000000E+00     0.00000000000000E+00
   C       0.00000000000000E+00     0.00000000000000E+00     0.00000000000000E+00
   C       0.00000000000000E+00     0.00000000000000E+00     0.00000000000000E+00
   C       0.00000000000000E+00     0.00000000000000E+00     0.00000000000000E+00
   C       0.00000000000000E+00     0.00000000000000E+00     0.00000000000000E+00
   C       0.00000000000000E+00     0.00000000000000E+00     0.00000000000000E+00
   C       0.00000000000000E+00     0.00000000000000E+00     0.00000000000000E+00
   C       0.00000000000000E+00     0.00000000000000E+00     0.00000000000000E+00
   C       0.00000000000000E+00     0.00000000000000E+00     0.00000000000000E+00
   C       0.00000000000000E+00     0.00000000000000E+00     0.00000000000000E+00
   C       0.00000000000000E+00     0.00000000000000E+00     0.00000000000000E+00
   C       0.00000000000000E+00     0.00000000000000E+00     0.00000000000000E+00
   C       0.00000000000000E+00     0.00000000000000E+00     0.00000000000000E+00
   C       0.00000000000000E+00     0.00000000000000E+00     0.00000000000000E+00
   C       0.00000000000000E+00     0.00000000000000E+00     0.00000000000000E+00
   C       0.00000000000000E+00     0.00000000000000E+00     0.00000000000000E+00
   C       0.00000000000000E+00     0.00000000000000E+00     0.00000000000000E+00
   C       0.00000000000000E+00     0.00000000000000E+00     0.00000000000000E+00
   C       0.00000000000000E+00     0.00000000000000E+00     0.00000000000000E+00
   C       0.00000000000000E+00     0.00000000000000E+00     0.00000000000000E+00
   C       0.00000000000000E+00     0.00000000000000E+00     0.00000000000000E+00
   C       0.00000000000000E+00     0.00000000000000E+00     0.00000000000000E+00
   C       0.00000000000000E+00     0.00000000000000E+00     0.00000000000000E+00
   C       0.00000000000000E+00     0.00000000000000E+00     0.00000000000000E+00
   C       0.00000000000000E+00     0.00000000000000E+00     0.00000000000000E+00
   C       0.00000000000000E+00     0.00000000000000E+00     0.00000000000000E+00
   C       0.00000000000000E+00     0.00000000000000E+00     0.00000000000000E+00

   Forces acting on atoms (au):
   C      -0.87041132374121E-02    -0.87488364894720E-04    -0.20225725328665E-02
   C       0.65348850553965E-03    -0.46464128024894E-04    -0.61617356819663E-04
   C       0.58477139450294E-04     0.62051974283866E-05    -0.12303957494978E-05
   C       0.29691779861649E-04    -0.14787963085511E-04     0.31326728482028E-07
   C      -0.15842439134304E-05     0.71002394748629E-05    -0.81645361383055E-08
   C      -0.11497766066230E-04     0.14463758191941E-04    -0.13424795119472E-05
   C       0.64811520677554E-03     0.96414741515329E-04    -0.57018955956903E-04
   C      -0.14467398723587E-03    -0.48280766223824E-03    -0.58834838587032E-04
   C      -0.11725267860357E-03     0.52241293688577E-03    -0.59807985844866E-04
   C       0.57686771590590E-04    -0.19425340178006E-04     0.83918493872924E-05
   C       0.85289248171188E-05     0.40032378904914E-06    -0.71351196630659E-06
   C       0.17010446849155E-04     0.29564505794900E-04     0.12090393944398E-06
   C      -0.90269360024018E-07     0.37235679574806E-04    -0.70871655944106E-06
   C       0.47928356678566E-04    -0.11379964647198E-04     0.84424593108569E-05
   C      -0.48393455841788E-04    -0.10467604444575E-05    -0.12963812607782E-05
   C      -0.13897434266749E-04    -0.65841903322043E-05     0.84382484784466E-05
   C      -0.35375585772265E-04     0.22604681370163E-04    -0.13219870115115E-05
   C       0.25383881668108E-04     0.24138446231803E-04    -0.69941373431940E-06
   C      -0.18314997079985E-04    -0.20284268621414E-05     0.25680741856704E-07
   C      -0.18870440381259E-04     0.41594980468888E-04     0.11367624658264E-06
   C      -0.10981224878378E-04    -0.80419336763750E-05    -0.73314795856510E-06
   C      -0.38546647902679E-04     0.25192029022683E-04     0.27263778776799E-07
   C      -0.29954492399263E-05    -0.18904215326012E-04    -0.71947476525797E-06
   C       0.38197618857390E-05     0.15061711907798E-04    -0.71598844500670E-06
   C      -0.28494590281735E-04    -0.37864901606219E-04    -0.94578251346616E-08
   C      -0.17915542157699E-04     0.51384588371512E-04     0.16359448824348E-06
   C       0.23705912699888E-07     0.26821385538346E-04     0.10362979915319E-06
   C      -0.66183769922251E-04     0.12202552623306E-04     0.10510664400085E-06
   C       0.11911602120306E-04    -0.95071078754817E-05     0.34801713974579E-07
   C      -0.24332552399863E-04    -0.15911893576027E-04     0.12632222399840E-06
   C      -0.24968582217578E-04    -0.62629345682568E-05     0.72161855329892E-07
   C      -0.89512486558584E-05     0.14848027334183E-04     0.14994852551951E-06
   C       0.99962326458563E-05     0.55265006701966E-06     0.35733419629372E-07
   C      -0.61247133306733E-04    -0.19787494322422E-05    -0.73007806772458E-06
   C      -0.29101920074926E-04     0.82178653593448E-04    -0.75560624056732E-06
   C      -0.78312512739131E-04    -0.19033545226610E-04    -0.11739399670543E-05
   C       0.89558162509783E-06     0.21445700412712E-04    -0.71865013982126E-06
   C       0.31224402643317E-04    -0.14535471345748E-04     0.60977560306205E-07
   C       0.14150207655164E-04    -0.99998130765271E-05     0.53337477320743E-07
   C      -0.27664443818666E-04    -0.17826599255251E-04    -0.67865643866376E-06
   C      -0.32266360682201E-04     0.88119795590333E-04    -0.14470733995831E-05
   C       0.20174633547426E-04     0.13074038516931E-04     0.84479804855585E-05
   C      -0.12525989490942E-03    -0.34972924059144E-03    -0.61330001185673E-04
   C       0.82600845561086E-04    -0.56932471747530E-04     0.84590610281863E-05
   C       0.15548678734419E-04    -0.31405123537531E-04    -0.72811513933398E-06
   C       0.16422421258906E-04     0.43719947524878E-05     0.17430072050365E-06
   C       0.25870717805525E-04     0.33110027637150E-04    -0.73301507972469E-06
   C       0.59665149300794E-04     0.31240815151390E-04     0.83288233964487E-05
   C      -0.17121016853947E-03     0.43026769194002E-03    -0.57250917543668E-04
   C      -0.59911029344090E-04     0.18089763502249E-03     0.49159547593202E-04
   C      -0.39189230466394E-04    -0.37703538540903E-05    -0.93815958149713E-06
   C      -0.50102606525219E-05     0.16882707452132E-04    -0.45385397676157E-06
   C      -0.15080322688981E-04    -0.14055278662639E-04    -0.41918632529411E-06
   C      -0.36101136604181E-04    -0.18533028811007E-04    -0.91928396953473E-06
   C       0.52689052298318E-05    -0.22499531687085E-03     0.49273121082178E-04
   C       0.16371005760227E-02     0.12652511352511E-04     0.84332596730934E-03
   C       0.30386630983372E-02     0.82014748670913E-03     0.83247855266798E-03
   C      -0.46619191655037E-04    -0.51415011673668E-04    -0.60672344461546E-04
   C      -0.43290980565417E-04    -0.79265686388750E-05     0.27946815075743E-05
   C      -0.42341668985467E-05    -0.20960062721839E-04     0.90012135974677E-06
   C       0.17729403906780E-04    -0.23141551996570E-04     0.27252533224025E-05
   C      -0.68196307611875E-05     0.84974092454806E-04    -0.60755070867398E-04
   C       0.29128707534481E-02    -0.77503698355008E-03     0.85348744608781E-03
   C       0.28858509062716E-03     0.11999404187702E-04     0.49182147199120E-04
   C      -0.12793069762657E-03    -0.59689382239723E-04    -0.60436101440032E-04
   C      -0.28684322091752E-04    -0.22763327089916E-04     0.76791246160409E-05
   C      -0.41869246999471E-05    -0.95104421398544E-06    -0.99681215896554E-06
   C      -0.90265838091388E-05    -0.49035130250069E-04    -0.97933388445043E-06
   C      -0.39219703558556E-04     0.15878963971082E-04     0.77007272436607E-05
   C      -0.88412526633273E-04     0.54923663461942E-04    -0.60913631891045E-04
   C       0.23154336020337E-04     0.17690537811409E-04    -0.95547778423306E-06
   C       0.28354187135207E-04    -0.99596343741507E-05    -0.88352133099358E-06
   C       0.66106528914051E-05     0.35058486879447E-04     0.27287150036841E-05
   C      -0.95208349379198E-05    -0.46833434683063E-04    -0.99541754628113E-06
   C       0.27926468143819E-04    -0.13600901409062E-04     0.75753371547886E-06
   C      -0.80684973176193E-05    -0.65708117293392E-05    -0.95685223071565E-06
   C       0.25292787190622E-04    -0.24060110940021E-04     0.28070343632577E-05
   C       0.39479005374116E-05     0.21571647971226E-04    -0.41838437964021E-06
   C       0.89511488905602E-05     0.94302616922176E-05     0.40920725092560E-06
   C      -0.73794266881747E-06    -0.10340867322898E-04    -0.47127055505251E-06
   C       0.49528520265610E-04     0.30295839300378E-05     0.90699021564681E-06
   C       0.52568558709425E-05    -0.59893719034296E-05    -0.95425235768242E-06
   C       0.29337509729241E-04    -0.83384600155513E-04    -0.97498294638232E-06
   C       0.55085982336144E-04     0.14962641876782E-04     0.80492735997198E-06
   C      -0.18947939830565E-05    -0.18632677770118E-04    -0.41487858595703E-06
   C       0.31731170138855E-04     0.19080186589806E-04    -0.67388726398656E-07
   C       0.25227900956536E-04     0.69792285153291E-05    -0.24457729353713E-07
   C      -0.44231366888000E-06     0.97355972725298E-05    -0.46049085156430E-06
   C       0.43176365620025E-04    -0.69216996474544E-04     0.27166800957513E-05
   C       0.62337015651250E-04    -0.94819248367666E-05     0.76488091006611E-05
   C      -0.85331761149915E-05     0.10099801610886E-05     0.28553632241546E-05
   C       0.40450748088227E-04     0.60773616211575E-04    -0.95873378060727E-06
   C      -0.23693390662728E-04     0.24667364030828E-04     0.39743616853361E-06
   C      -0.20572264440280E-04    -0.53498551442793E-05    -0.55475888329044E-07
   C       0.14336064464195E-04    -0.26835765964190E-04     0.39770457505848E-06
   C       0.53524923524299E-04    -0.30372586894277E-04    -0.87588883064863E-06
   C       0.73480385968952E-04     0.13935741893335E-04    -0.60478309182223E-04
   C       0.97914932894006E-04    -0.95983116829211E-04    -0.60916986613407E-04



   Partial temperatures (for each ionic specie) 
   Species  Temp (K)   Mean Square Displacement (a.u.)
        1   0.00E+00     0.0000E+00
    192    0.000000834985332    0.0    0.00    -560.706555465668    -560.706555465668    -560.706555465668    -560.706554630683   0.0000   0.0000   0.0000   0.0000

   MAIN:          EKINC   (thr)          DETOT   (thr)       MAXFORCE   (thr)
   MAIN:   0.834985D-06  0.1D-05  0.237797D-06  0.1D-03  0.000000D+00  0.1D+11
   MAIN: convergence achieved for system relaxation

   writing restart file (with schema): ./out/graphene_68.save/
     restart      :     17.39s CPU     79.43s WALL (      20 calls)


   Averaged Physical Quantities
                      accumulated      this run
   ekinc         :       35.01117      35.01117 (AU)
   ekin          :      421.87736     421.87736 (AU)
   epot          :     -948.00514    -948.00514 (AU)
   total energy  :     -515.22076    -515.22076 (AU)
   temperature   :        0.00000       0.00000 (K )
   enthalpy      :     -515.22076    -515.22076 (AU)
   econs         :     -515.22076    -515.22076 (AU)
   pressure      :       20.56981      20.56981 (Gpa)
   volume        :    26172.40970   26172.40970 (AU)



     Called by MAIN_LOOP:
     initialize   :    460.05s CPU    256.83s WALL (       1 calls)
     main_loop    :  48220.54s CPU  28427.13s WALL (     192 calls)
     cpr_total    :  48237.94s CPU  28506.57s WALL (       1 calls)

     Called by INIT_RUN:

     Called by CPR:
     cpr_md       :  48237.94s CPU  28506.57s WALL (     192 calls)
     move_electro :   7553.55s CPU   5602.70s WALL (     192 calls)

     Called by move_electrons:
     rhoofr       :     37.31s CPU     37.76s WALL (     193 calls)
     vofrho       :      8.95s CPU      9.03s WALL (     193 calls)
     dforce       :   7381.99s CPU   5446.97s WALL (   18914 calls)
     calphi       :      1.56s CPU      1.60s WALL (     193 calls)
     nlfl         :      0.22s CPU      0.23s WALL (     193 calls)

     Called by ortho:
     ortho_iter   :      1.88s CPU      1.74s WALL (     193 calls)
     rsg          :   2009.27s CPU   2286.80s WALL (     193 calls)
     rhoset       :   1867.95s CPU    976.99s WALL (     193 calls)
     sigset       :   1074.31s CPU    556.06s WALL (     193 calls)
     tauset       :   1078.26s CPU    561.14s WALL (     193 calls)
     ortho        :   6031.69s CPU   4383.10s WALL (     193 calls)
     updatc       :   2186.60s CPU   1701.06s WALL (     193 calls)

     Small boxes:

     Low-level routines:
     prefor       :      1.56s CPU      1.60s WALL (     193 calls)
     nlfq         :    159.84s CPU    134.23s WALL (     193 calls)
     nlsm1        :     75.71s CPU     63.68s WALL (     194 calls)
     nlsm2        :    159.81s CPU    134.20s WALL (     193 calls)
     fft          :      2.13s CPU      2.15s WALL (     599 calls)
     ffts         :      1.46s CPU      1.47s WALL (     386 calls)
     fftw         :   2491.83s CPU   1576.44s WALL (   56742 calls)
     fft_scatt_xy :     13.81s CPU     12.59s WALL (   57727 calls)
     fft_scatt_yz :   2426.87s CPU   1518.77s WALL (   57727 calls)
     fft_scatt_tg :      1.58s CPU      1.33s WALL (   56742 calls)
     betagx       :      0.38s CPU      0.39s WALL (       1 calls)
     qradx        :      0.00s CPU      0.00s WALL (       1 calls)
     gram         :     36.81s CPU     18.97s WALL (       1 calls)
     nlinit       :      0.90s CPU      0.69s WALL (       1 calls)
     init_dim     :      0.35s CPU      0.36s WALL (       1 calls)
     newnlinit    :      0.44s CPU      0.22s WALL (       1 calls)
     from_scratch :    458.79s CPU    255.74s WALL (       1 calls)
     strucf       :      0.01s CPU      0.01s WALL (       1 calls)
     calbec       :     75.78s CPU     63.71s WALL (     194 calls)


     CP           :     13h31m CPU      7h59m WALL


   This run was terminated on:  19:55:55  25Jun2022            

=------------------------------------------------------------------------------=
   JOB DONE.
=------------------------------------------------------------------------------=
