
     Program CP v.6.7MaX starts on 25Jun2022 at 19:57:55 

     This program is part of the open-source Quantum ESPRESSO suite
     for quantum simulation of materials; please cite
         "P. Giannozzi et al., J. Phys.:Condens. Matter 21 395502 (2009);
         "P. Giannozzi et al., J. Phys.:Condens. Matter 29 465901 (2017);
          URL http://www.quantum-espresso.org", 
     in publications or presentations arising from this work. More details at
     http://www.quantum-espresso.org/quote

     Parallel version (MPI), running on    60 processors

     MPI processes distributed on     1 nodes
     R & G space division:  proc/nbgrp/npool/nimage =      60
     Waiting for input...
     Reading input from standard input

   Job Title: MD Simulation


   Atomic Pseudopotentials Parameters
   ----------------------------------

   Reading pseudopotential for specie #  1 from file :
   ./C.UPF
   file type is UPF v.1
     file C.UPF: wavefunction(s)  3d renormalized


   Main Simulation Parameters (from input)
   ---------------------------------------
   Restart Mode       =       1   restart        
   Number of MD Steps =     100
   Print out every            5 MD Steps
   Reads from unit    =      68
   Writes to unit     =      69
   MD Simulation time step            =       2.00
   Electronic fictitious mass (emass) =     100.00
   emass cut-off                      =      25.00

   Simulation Cell Parameters (from input)
   external pressure       =            0.00 [KBar]
   wmass (calculated)      =       163048.20 [AU]
   initial cell from CELL_PARAMETERS card
      17.27876146    0.00000000    0.00000000
      -8.63938073   14.96384637    0.00000000
       0.00000000    0.00000000   15.00000000
   ibrav =    0
   alat  =    32.65212694
   a1    =    32.65212694    0.00000000    0.00000000
   a2    =   -16.32606347   28.27757141    0.00000000
   a3    =     0.00000000    0.00000000   28.34589187

   b1    =     0.03062588    0.01768186   -0.00000000
   b2    =     0.00000000    0.03536372    0.00000000
   b3    =     0.00000000   -0.00000000    0.03527848
   omega =   26172.40970235

   Energy Cut-offs
   ---------------
   Ecutwfc =   85.0 Ry,      Ecutrho =  340.0 Ry,      Ecuts =  340.0 Ry
   Gcutwfc =   47.9     ,    Gcutrho =   95.8          Gcuts =   95.8
   NOTA BENE: refg, mmx =   0.050000  8160
   Eigenvalues calculated without the kinetic term contribution
   Orthog. with lagrange multipliers : eps =   0.10E-08,  max = 800
   Electron dynamics with newton equations
   Electron dynamics : the temperature is not controlled

   Electronic states
   -----------------
   Number of Electrons=   392, of States =   196
   Occupation numbers :
   2.00 2.00 2.00 2.00 2.00 2.00 2.00 2.00 2.00 2.00
   2.00 2.00 2.00 2.00 2.00 2.00 2.00 2.00 2.00 2.00
   2.00 2.00 2.00 2.00 2.00 2.00 2.00 2.00 2.00 2.00
   2.00 2.00 2.00 2.00 2.00 2.00 2.00 2.00 2.00 2.00
   2.00 2.00 2.00 2.00 2.00 2.00 2.00 2.00 2.00 2.00
   2.00 2.00 2.00 2.00 2.00 2.00 2.00 2.00 2.00 2.00
   2.00 2.00 2.00 2.00 2.00 2.00 2.00 2.00 2.00 2.00
   2.00 2.00 2.00 2.00 2.00 2.00 2.00 2.00 2.00 2.00
   2.00 2.00 2.00 2.00 2.00 2.00 2.00 2.00 2.00 2.00
   2.00 2.00 2.00 2.00 2.00 2.00 2.00 2.00 2.00 2.00
   2.00 2.00 2.00 2.00 2.00 2.00 2.00 2.00 2.00 2.00
   2.00 2.00 2.00 2.00 2.00 2.00 2.00 2.00 2.00 2.00
   2.00 2.00 2.00 2.00 2.00 2.00 2.00 2.00 2.00 2.00
   2.00 2.00 2.00 2.00 2.00 2.00 2.00 2.00 2.00 2.00
   2.00 2.00 2.00 2.00 2.00 2.00 2.00 2.00 2.00 2.00
   2.00 2.00 2.00 2.00 2.00 2.00 2.00 2.00 2.00 2.00
   2.00 2.00 2.00 2.00 2.00 2.00 2.00 2.00 2.00 2.00
   2.00 2.00 2.00 2.00 2.00 2.00 2.00 2.00 2.00 2.00
   2.00 2.00 2.00 2.00 2.00 2.00 2.00 2.00 2.00 2.00
   2.00 2.00 2.00 2.00 2.00 2.00


   Exchange and correlations functionals
   -------------------------------------
     Exchange-correlation=  SLA  PZ   NOGX NOGC
                           (   1   1   0   0   0   0   0)


   Ions Simulation Parameters
   --------------------------
   Ions are allowed to move
   Ions dynamics with newton equations
   the temperature is computed for   291 degrees of freedom
   ion dynamics with fricp =  0.0000 and greasp =  1.0000
   Ionic position (from input)
   sorted by specie, and converted to real a.u. coordinates
   Species   1 atoms =   98 mass =     21894.17 (a.u.),        12.01 (amu) rcmax =   0.50 (a.u.)
       -2.318013     4.039646    14.185334
        2.332307     4.039646    14.172946
        6.996896     4.039646    14.172946
       11.661486     4.039646    14.172946
       16.326075     4.039646    14.172946
       20.990665     4.039646    14.172946
       25.655254     4.039646    14.172946
       -4.664578     8.079299    14.172946
        0.000012     8.079299    14.172946
        4.664601     8.079299    14.172946
        9.329191     8.079299    14.172946
       13.993780     8.079299    14.172946
       18.658370     8.079299    14.172946
       23.322960     8.079299    14.172946
       -6.996873    12.118952    14.172946
       -2.332283    12.118952    14.172946
        2.332307    12.118952    14.172946
        6.996896    12.118952    14.172946
       11.661486    12.118952    14.172946
       16.326075    12.118952    14.172946
       20.990665    12.118952    14.172946
       -9.329167    16.158605    14.172946
       -4.664578    16.158605    14.172946
        0.000012    16.158605    14.172946
        4.664601    16.158605    14.172946
        9.329191    16.158605    14.172946
       13.993780    16.158605    14.172946
       18.658370    16.158605    14.172946
      -11.661462    20.198259    14.172946
       -6.996873    20.198259    14.172946
       -2.332283    20.198259    14.172946
        2.332307    20.198259    14.172946
        6.996896    20.198259    14.172946
       11.661486    20.198259    14.172946
       16.326075    20.198259    14.172946
      -13.993757    24.237912    14.172946
       -9.329167    24.237912    14.172946
       -4.664578    24.237912    14.172946
        0.000012    24.237912    14.172946
        4.664601    24.237912    14.172946
        9.329191    24.237912    14.172946
       13.993780    24.237912    14.172946
      -16.326052    28.277565    14.172946
      -11.661462    28.277565    14.172946
       -6.996873    28.277565    14.172946
       -2.332283    28.277565    14.172946
        2.332307    28.277565    14.172946
        6.996896    28.277565    14.172946
       11.661486    28.277565    14.172946
        2.332307     1.346544    14.172946
        6.996896     1.346544    14.172946
       11.661486     1.346544    14.172946
       16.326075     1.346544    14.172946
       20.990665     1.346544    14.172946
       25.655254     1.346544    14.172946
       30.319844     1.346544    14.172946
        0.000012     5.386198    14.172946
        4.664601     5.386198    14.172946
        9.329191     5.386198    14.172946
       13.993780     5.386198    14.172946
       18.658370     5.386198    14.172946
       23.322960     5.386198    14.172946
       27.987549     5.386198    14.172946
       -2.332283     9.425851    14.172946
        2.332307     9.425851    14.172946
        6.996896     9.425851    14.172946
       11.661486     9.425851    14.172946
       16.326075     9.425851    14.172946
       20.990665     9.425851    14.172946
       25.655254     9.425851    14.172946
       -4.664578    13.465504    14.172946
        0.000012    13.465504    14.172946
        4.664601    13.465504    14.172946
        9.329191    13.465504    14.172946
       13.993780    13.465504    14.172946
       18.658370    13.465504    14.172946
       23.322960    13.465504    14.172946
       -6.996873    17.505157    14.172946
       -2.332283    17.505157    14.172946
        2.332307    17.505157    14.172946
        6.996896    17.505157    14.172946
       11.661486    17.505157    14.172946
       16.326075    17.505157    14.172946
       20.990665    17.505157    14.172946
       -9.329167    21.544810    14.172946
       -4.664578    21.544810    14.172946
        0.000012    21.544810    14.172946
        4.664601    21.544810    14.172946
        9.329191    21.544810    14.172946
       13.993780    21.544810    14.172946
       18.658370    21.544810    14.172946
      -11.661462    25.584463    14.172946
       -6.996873    25.584463    14.172946
       -2.332283    25.584463    14.172946
        2.332307    25.584463    14.172946
        6.996896    25.584463    14.172946
       11.661486    25.584463    14.172946
       16.326075    25.584463    14.172946
   Ionic position will be re-read from restart file

   All atoms are allowed to move
   Ionic temperature control via nose thermostat


   ion dynamics with nose` temperature control:
   temperature required      =  300.00000 (kelvin) 
   NH chain length           =   1
   active degrees of freedom =    291
   time steps per nose osc.  =    344


   nose` frequency(es)       =      60.000


   the requested type of NH chains is     0
   total number of thermostats used     1 0 0
   ionic degrees of freedom for each chain  294


   nose` mass(es) for chain    1 =    6649.271


   atom i (in sorted order) is assigned to this thermostat :
   1   1   1   1   1   1   1   1   1   1   1   1   1   1   1   1   1   1   1   1
   1   1   1   1   1   1   1   1   1   1   1   1   1   1   1   1   1   1   1   1
   1   1   1   1   1   1   1   1   1   1   1   1   1   1   1   1   1   1   1   1
   1   1   1   1   1   1   1   1   1   1   1   1   1   1   1   1   1   1   1   1
   1   1   1   1   1   1   1   1   1   1   1   1   1   1   1   1   1   1


   Cell Dynamics Parameters (from STDIN)
   -------------------------------------
   internal stress tensor calculated
   Starting cell generated from CELLDM
   Cell parameters will be re-read from restart file
   Constant VOLUME Molecular dynamics
   cell parameters are not allowed to move

   Verbosity: iverbosity =  0



   Simulation dimensions initialization
   ------------------------------------

   unit vectors of full simulation cell
   in real space:                         in reciprocal space (units 2pi/alat):
   1    32.6521    0.0000    0.0000              1.0000    0.5774   -0.0000
   2   -16.3261   28.2776    0.0000              0.0000    1.1547    0.0000
   3     0.0000    0.0000   28.3459              0.0000   -0.0000    1.1519

     Parallelization info
     --------------------
     sticks:   dense  smooth     PW     G-vecs:    dense   smooth      PW
     Min         415     415    102                46164    46164    5758
     Max         418     418    104                46176    46176    5780
     Sum       24967   24967   6217              2770205  2770205  346355


   Real Mesh
   ---------
   Global Dimensions   Local  Dimensions   Processor Grid
   .X.   .Y.   .Z.     .X.   .Y.   .Z.     .X.   .Y.   .Z.
   192   192   180     192   192     3       1     1    60
   Array leading dimensions ( nr1x, nr2x, nr3x )   =    192   192   180
   Local number of cell to store the grid ( nrxx ) =     110592
   Number of x-y planes for each processors: 
  | 192,   3  | 192,   3  | 192,   3  | 192,   3  | 192,   3
  | 192,   3  | 192,   3  | 192,   3  | 192,   3  | 192,   3
  | 192,   3  | 192,   3  | 192,   3  | 192,   3  | 192,   3
  | 192,   3  | 192,   3  | 192,   3  | 192,   3  | 192,   3
  | 192,   3  | 192,   3  | 192,   3  | 192,   3  | 192,   3
  | 192,   3  | 192,   3  | 192,   3  | 192,   3  | 192,   3
  | 192,   3  | 192,   3  | 192,   3  | 192,   3  | 192,   3
  | 192,   3  | 192,   3  | 192,   3  | 192,   3  | 192,   3
  | 192,   3  | 192,   3  | 192,   3  | 192,   3  | 192,   3
  | 192,   3  | 192,   3  | 192,   3  | 192,   3  | 192,   3
  | 192,   3  | 192,   3  | 192,   3  | 192,   3  | 192,   3
  | 192,   3  | 192,   3  | 192,   3  | 192,   3  | 192,   3

   Smooth Real Mesh
   ----------------
   Global Dimensions   Local  Dimensions   Processor Grid
   .X.   .Y.   .Z.     .X.   .Y.   .Z.     .X.   .Y.   .Z.
   192   192   180     192   192     3       1     1    60
   Array leading dimensions ( nr1x, nr2x, nr3x )   =    192   192   180
   Local number of cell to store the grid ( nrxx ) =     110592
   Number of x-y planes for each processors: 
  | 192,   3  | 192,   3  | 192,   3  | 192,   3  | 192,   3
  | 192,   3  | 192,   3  | 192,   3  | 192,   3  | 192,   3
  | 192,   3  | 192,   3  | 192,   3  | 192,   3  | 192,   3
  | 192,   3  | 192,   3  | 192,   3  | 192,   3  | 192,   3
  | 192,   3  | 192,   3  | 192,   3  | 192,   3  | 192,   3
  | 192,   3  | 192,   3  | 192,   3  | 192,   3  | 192,   3
  | 192,   3  | 192,   3  | 192,   3  | 192,   3  | 192,   3
  | 192,   3  | 192,   3  | 192,   3  | 192,   3  | 192,   3
  | 192,   3  | 192,   3  | 192,   3  | 192,   3  | 192,   3
  | 192,   3  | 192,   3  | 192,   3  | 192,   3  | 192,   3
  | 192,   3  | 192,   3  | 192,   3  | 192,   3  | 192,   3
  | 192,   3  | 192,   3  | 192,   3  | 192,   3  | 192,   3

   Reciprocal Space Mesh
   ---------------------
   Large Mesh
     Global(ngm_g)    MinLocal       MaxLocal      Average
        1385103          23082          23088       23085.05
   Smooth Mesh
     Global(ngms_g)   MinLocal       MaxLocal      Average
        1385103          23082          23088       23085.05
   Wave function Mesh
     Global(ngw_g)    MinLocal       MaxLocal      Average
         173178           2879           2890        2886.30


   System geometry initialization
   ------------------------------
   cell parameters read from restart file
   ibrav =    0       cell parameters 


   cell at current step : h(t)
      32.65213     -16.32606       0.00000
       0.00000      28.27757       0.00000
       0.00000       0.00000      28.34589

   cell at previous step : h(t-dt)
      32.65213     -16.32606       0.00000
       0.00000      28.27757       0.00000
       0.00000       0.00000      28.34589


   Matrix Multiplication Performances
   ortho mmul, time for parallel driver      =   0.00022 with   49 procs

   Constraints matrixes will be distributed block like on
   ortho sub-group =    7*   7 procs



   Pseudopotentials initialization
   -------------------------------


   Common initialization

   Specie:     1
   1  indv=  1   ang. mom=  0
   2  indv=  2   ang. mom=  1
   3  indv=  2   ang. mom=  1
   4  indv=  2   ang. mom=  1

                        dion 
   0.6484   0.0000
   0.0000  -1.8728

   Cell parameters from input file are used in electron mass preconditioning
   init_tpiba2=    0.03702856

   Short Legend and Physical Units in the Output
   ---------------------------------------------
   NFI    [int]          - step index
   EKINC  [HARTREE A.U.] - kinetic energy of the fictitious electronic dynamics
   TEMPH  [K]            - Temperature of the fictitious cell dynamics
   TEMP   [K]            - Ionic temperature
   ETOT   [HARTREE A.U.] - Scf total energy (Kohn-Sham hamiltonian)
   ENTHAL [HARTREE A.U.] - Enthalpy ( ETOT + P * V )
   ECONS  [HARTREE A.U.] - Enthalpy + kinetic energy of ions and cell
   ECONT  [HARTREE A.U.] - Constant of motion for the CP lagrangian


   formf: eself=  1251.08299
   formf:     vps(g=0)=  -0.0000177     rhops(g=0)=  -0.0001524
   formf:     vps(g=0)=  -0.0000176     rhops(g=0)=  -0.0001519
   formf:     vps(g=0)=  -0.0000176     rhops(g=0)=  -0.0001519
   formf:     vps(g=0)=  -0.0000171     rhops(g=0)=  -0.0001505
   formf:     vps(g=0)=  -0.0000171     rhops(g=0)=  -0.0001505
   formf: sum_g vps(g)=   0.9493360 sum_g rhops(g)=  -2.8734704
   Delta V(G=0):   0.011763Ry,    0.320095eV

  nfi     ekinc              temph  tempp     etot                 enthal               econs                econt              vnhh    xnhh0   vnhp    xnhp0
    193    0.000000886535654    0.0    0.00    -560.706555673788    -560.706555673788    -560.706555671371    -560.706549037469   0.0000   0.0000  -0.0000   0.0000
    194    0.000001103945030    0.0    0.00    -560.706555911132    -560.706555911132    -560.706555889404    -560.706549038098   0.0000   0.0000  -0.0001  -0.0002
    195    0.000001323851935    0.0    0.00    -560.706556170259    -560.706556170259    -560.706556110056    -560.706549038874   0.0000   0.0000  -0.0002  -0.0005
    196    0.000001538580628    0.0    0.00    -560.706556443269    -560.706556443269    -560.706556325631    -560.706549039814   0.0000   0.0000  -0.0003  -0.0010
    197    0.000001740691994    0.0    0.00    -560.706556722368    -560.706556722368    -560.706556528483    -560.706549040767   0.0000   0.0000  -0.0004  -0.0017
    198    0.000001923141791    0.0    0.00    -560.706557000296    -560.706557000296    -560.706556711364    -560.706549041608   0.0000   0.0000  -0.0005  -0.0025
    199    0.000002079473994    0.0    0.00    -560.706557270669    -560.706557270669    -560.706556867755    -560.706549042367   0.0000   0.0000  -0.0005  -0.0035

 * Physical Quantities at step:   200

   from rhoofr: total integrated electronic density
   in g-space =    392.000000   in r-space =   392.000000
     Total Electronic Pressure (GPa)       -2.58075    200
     Pressure of Nuclei (GPa)             0.00000    200
     Pressure Total (GPa)            -2.58075    200


                total energy =     -560.70655752792 Hartree a.u.
              kinetic energy =      403.01822 Hartree a.u.
        electrostatic energy =     -790.03279 Hartree a.u.
                         esr =        0.00006 Hartree a.u.
                       eself =     1251.08299 Hartree a.u.
      pseudopotential energy =      -15.20344 Hartree a.u.
  n-l pseudopotential energy =       11.34762 Hartree a.u.
 exchange-correlation energy =     -169.83616 Hartree a.u.
           average potential =        0.00000 Hartree a.u.



   Eigenvalues (eV), kp =   1 , spin =  1

  -21.64  -21.16  -21.16  -21.16  -21.16  -21.16  -21.16  -20.22  -20.21  -20.21
  -20.21  -20.21  -20.21  -19.75  -19.74  -19.74  -19.74  -19.74  -19.74  -18.36
  -18.36  -18.36  -18.36  -18.36  -18.36  -18.36  -18.36  -18.36  -18.36  -18.36
  -18.35  -17.47  -17.46  -17.46  -17.46  -17.46  -17.46  -16.19  -16.19  -16.19
  -16.19  -16.19  -16.18  -16.08  -16.08  -16.08  -16.08  -16.08  -16.08  -15.19
  -15.19  -15.19  -15.19  -15.19  -15.19  -14.24  -14.24  -14.24  -14.24  -14.24
  -14.24  -13.69  -13.68  -13.68  -13.68  -13.68  -13.68  -12.33  -12.32  -12.32
  -12.32  -12.32  -12.32  -12.32  -12.32  -12.32  -12.32  -12.32  -12.31  -12.24
  -12.24  -12.24  -12.24  -12.24  -12.24  -10.66  -10.66  -10.66  -10.66  -10.65
  -10.65  -10.18  -10.18  -10.18  -10.18  -10.18  -10.18   -9.98   -9.68   -9.67
   -9.67   -9.67   -9.67   -9.67   -9.67   -9.67   -9.67   -9.67   -9.67   -9.66
   -9.41   -9.41   -9.41   -9.41   -9.41   -9.40   -9.20   -9.19   -9.19   -9.19
   -9.19   -9.19   -8.70   -8.70   -8.70   -8.70   -8.70   -8.69   -8.29   -8.29
   -8.29   -8.29   -8.29   -8.28   -8.08   -8.08   -8.08   -8.08   -8.08   -8.07
   -7.80   -7.80   -7.80   -7.80   -7.80   -7.79   -7.75   -7.75   -7.75   -7.75
   -7.75   -7.74   -7.17   -7.17   -7.17   -7.17   -7.17   -7.16   -6.35   -6.34
   -6.34   -6.34   -6.34   -6.34   -6.19   -6.19   -6.19   -6.19   -6.19   -6.19
   -6.19   -6.19   -6.19   -6.19   -6.19   -6.18   -5.48   -5.47   -5.38   -5.38
   -5.38   -5.38   -5.38   -5.38   -4.29   -4.29   -4.29   -4.29   -4.29   -4.28
   -3.88   -3.88   -3.88   -3.88   -3.88   -3.87


   CELL_PARAMETERS
   32.65212694  -16.32606347    0.00000000
    0.00000000   28.27757141    0.00000000
    0.00000000    0.00000000   28.34589187

   System Density [g/cm^3] :              0.5039705731


   System Volume [A.U.^3] :          26172.4097023480


   Center of mass square displacement (a.u.):   0.000000

   Total stress (GPa)
       -3.84125365         0.00335006        -0.00012030
        0.00335006        -3.84092433        -0.00000116
       -0.00012030        -0.00000116        -0.06008322
   ATOMIC_POSITIONS
   C      -0.23180571257773E+01     0.40396458253051E+01     0.14185323835939E+02
   C       0.23323098825258E+01     0.40396460242207E+01     0.14172945619267E+02
   C       0.69968963526150E+01     0.40396462886000E+01     0.14172945928514E+02
   C       0.11661485795967E+02     0.40396462093470E+01     0.14172945934853E+02
   C       0.16326075235514E+02     0.40396462904402E+01     0.14172945934769E+02
   C       0.20990664764598E+02     0.40396463225438E+01     0.14172945927832E+02
   C       0.25655257659089E+02     0.40396467014734E+01     0.14172945642785E+02
   C      -0.46645785257898E+01     0.80792968539746E+01     0.14172945633392E+02
   C       0.11145449123569E-04     0.80793019562287E+01     0.14172945628685E+02
   C       0.46646016184614E+01     0.80792992809150E+01     0.14172945977665E+02
   C       0.93291909381147E+01     0.80792993118269E+01     0.14172945931081E+02
   C       0.13993780519472E+02     0.80792994406049E+01     0.14172945935299E+02
   C       0.18658370028551E+02     0.80792994864376E+01     0.14172945931056E+02
   C       0.23322959828068E+02     0.80792992497041E+01     0.14172945977967E+02
   C      -0.69968728045761E+01     0.12118952349882E+02     0.14172945928188E+02
   C      -0.23322830640912E+01     0.12118952357133E+02     0.14172945977624E+02
   C       0.23323063722991E+01     0.12118952501060E+02     0.14172945928051E+02
   C       0.69968962035882E+01     0.12118952509880E+02     0.14172945931099E+02
   C       0.11661485607580E+02     0.12118952383216E+02     0.14172945934929E+02
   C       0.16326075168139E+02     0.12118952539306E+02     0.14172945935241E+02
   C       0.20990664747434E+02     0.12118952320491E+02     0.14172945930970E+02
   C      -0.93291675137753E+01     0.16158605540440E+02     0.14172945934829E+02
   C      -0.46645778189688E+01     0.16158605338885E+02     0.14172945931043E+02
   C       0.11769933176486E-04     0.16158605531956E+02     0.14172945931072E+02
   C       0.46646012136183E+01     0.16158605296534E+02     0.14172945934737E+02
   C       0.93291908131712E+01     0.16158605647816E+02     0.14172945935461E+02
   C       0.13993780447397E+02     0.16158605547847E+02     0.14172945935159E+02
   C       0.18658369749594E+02     0.16158605488447E+02     0.14172945935269E+02
   C      -0.11661462095155E+02     0.20198258456098E+02     0.14172945934874E+02
   C      -0.69968726799248E+01     0.20198258435704E+02     0.14172945935337E+02
   C      -0.23322831175631E+01     0.20198258475863E+02     0.14172945935069E+02
   C       0.23323065041539E+01     0.20198258562499E+02     0.14172945935412E+02
   C       0.69968961470906E+01     0.20198258514384E+02     0.14172945934877E+02
   C       0.11661485418833E+02     0.20198258487379E+02     0.14172945931013E+02
   C       0.16326075106754E+02     0.20198258830130E+02     0.14172945930930E+02
   C      -0.13993757265411E+02     0.24237911456735E+02     0.14172945928693E+02
   C      -0.93291673616994E+01     0.24237911647072E+02     0.14172945931030E+02
   C      -0.46645776649915E+01     0.24237911497066E+02     0.14172945935069E+02
   C       0.11830417757006E-04     0.24237911529096E+02     0.14172945935028E+02
   C       0.46646012131554E+01     0.24237911489551E+02     0.14172945931180E+02
   C       0.93291907256612E+01     0.24237911936481E+02     0.14172945927512E+02
   C       0.13993780539971E+02     0.24237911613737E+02     0.14172945977900E+02
   C      -0.16326052346350E+02     0.28277562764683E+02     0.14172945621014E+02
   C      -0.11661461755172E+02     0.28277564366229E+02     0.14172945977837E+02
   C      -0.69968725014109E+01     0.28277564475551E+02     0.14172945930997E+02
   C      -0.23322829532800E+01     0.28277564637772E+02     0.14172945935484E+02
   C       0.23323066640129E+01     0.28277564772443E+02     0.14172945931001E+02
   C       0.69968964048931E+01     0.28277564776783E+02     0.14172945977159E+02
   C       0.11661484851775E+02     0.28277566790818E+02     0.14172945641350E+02
   C       0.23323062731907E+01     0.13465453570592E+01     0.14172946185316E+02
   C       0.69968959063511E+01     0.13465444250916E+01     0.14172945929949E+02
   C       0.11661485631787E+02     0.13465445010344E+01     0.14172945932425E+02
   C       0.16326075155012E+02     0.13465443845023E+01     0.14172945932485E+02
   C       0.20990664605170E+02     0.13465443621832E+01     0.14172945930029E+02
   C       0.25655254336571E+02     0.13465433449448E+01     0.14172946185937E+02
   C       0.30319852231044E+02     0.13465444959650E+01     0.14172950236905E+02
   C       0.27206846600604E-04     0.53862016644826E+01     0.14172950181979E+02
   C       0.46646010993179E+01     0.53861971759562E+01     0.14172945625526E+02
   C       0.93291907057460E+01     0.53861974710375E+01     0.14172945948897E+02
   C       0.13993780410746E+02     0.53861974154486E+01     0.14172945939272E+02
   C       0.18658370069637E+02     0.53861974007844E+01     0.14172945948697E+02
   C       0.23322959504842E+02     0.53861979483182E+01     0.14172945624982E+02
   C       0.27987563958168E+02     0.53861935942608E+01     0.14172950288400E+02
   C      -0.23322815617614E+01     0.94258506020792E+01     0.14172946185517E+02
   C       0.23323059214876E+01     0.94258502447834E+01     0.14172945626568E+02
   C       0.69968959263308E+01     0.94258504334163E+01     0.14172945973824E+02
   C       0.11661485634192E+02     0.94258505444114E+01     0.14172945929659E+02
   C       0.16326075177243E+02     0.94258503703859E+01     0.14172945929727E+02
   C       0.20990664573193E+02     0.94258506500523E+01     0.14172945973897E+02
   C       0.25655253889267E+02     0.94258508471441E+01     0.14172945624208E+02
   C      -0.46645777023950E+01     0.13465503712640E+02     0.14172945929844E+02
   C       0.11880833252510E-04     0.13465503549097E+02     0.14172945930181E+02
   C       0.46646013547990E+01     0.13465503747495E+02     0.14172945948629E+02
   C       0.93291908228820E+01     0.13465503428389E+02     0.14172945929672E+02
   C       0.13993780530100E+02     0.13465503561635E+02     0.14172945938555E+02
   C       0.18658369953903E+02     0.13465503591938E+02     0.14172945929773E+02
   C       0.23322959678146E+02     0.13465503525483E+02     0.14172945949036E+02
   C      -0.69968725817428E+01     0.17505156763534E+02     0.14172945932503E+02
   C      -0.23322829710141E+01     0.17505156712989E+02     0.14172945936745E+02
   C       0.23323065238475E+01     0.17505156631035E+02     0.14172945932349E+02
   C       0.69968962909862E+01     0.17505156678800E+02     0.14172945939310E+02
   C       0.11661485676679E+02     0.17505156657298E+02     0.14172945929793E+02
   C       0.16326075333271E+02     0.17505156342737E+02     0.14172945929754E+02
   C       0.20990664998664E+02     0.17505156739224E+02     0.14172945938939E+02
   C      -0.93291673818222E+01     0.21544809661298E+02     0.14172945932543E+02
   C      -0.46645776834918E+01     0.21544809815559E+02     0.14172945934436E+02
   C       0.11854004266235E-04     0.21544809753401E+02     0.14172945934562E+02
   C       0.46646013122163E+01     0.21544809770966E+02     0.14172945932372E+02
   C       0.93291910532098E+01     0.21544809451287E+02     0.14172945948583E+02
   C       0.13993780686267E+02     0.21544809695325E+02     0.14172945973730E+02
   C       0.18658369976221E+02     0.21544809747909E+02     0.14172945949179E+02
   C      -0.11661461980999E+02     0.25584463061779E+02     0.14172945929835E+02
   C      -0.69968726906728E+01     0.25584462908688E+02     0.14172945936697E+02
   C      -0.23322831213667E+01     0.25584462772621E+02     0.14172945934466E+02
   C       0.23323065833922E+01     0.25584462670275E+02     0.14172945936710E+02
   C       0.69968963197510E+01     0.25584462642335E+02     0.14172945930200E+02
   C       0.11661486044478E+02     0.25584462893324E+02     0.14172945626358E+02
   C       0.16326075702735E+02     0.25584462370355E+02     0.14172945624285E+02

   ATOMIC_VELOCITIES
   C      -0.59219218015921E-05    -0.58776241249725E-07    -0.13801346790948E-05
   C       0.44745211822569E-06    -0.33069156307674E-07    -0.42324441647363E-07
   C       0.29597070328150E-07     0.21762788091280E-08    -0.81901317014713E-09
   C       0.15572471297728E-07    -0.65443843131496E-08     0.20171651061698E-10
   C       0.16514571895458E-08     0.22233582600905E-08     0.15797284670535E-10
   C      -0.16081127174684E-08     0.61403343210222E-08    -0.91600491041436E-09
   C       0.44225889580271E-06     0.54332603147745E-07    -0.39174187011186E-07
   C      -0.96258254699343E-07    -0.33151701906861E-06    -0.40439699862472E-07
   C      -0.83787605840269E-07     0.34956555991847E-06    -0.41052035235228E-07
   C       0.39353984955498E-07    -0.24421500299216E-08     0.57658932515330E-08
   C       0.74581065009991E-08    -0.30643397692095E-08    -0.48354253955487E-09
   C       0.83535577686382E-08     0.12802134908095E-07     0.80087095759370E-10
   C       0.35535357504733E-08     0.19375460551331E-07    -0.48939994203369E-09
   C       0.34755204361683E-07    -0.11521408157911E-07     0.58087006751559E-08
   C      -0.28198658158472E-07    -0.68103283297334E-08    -0.86162626490335E-09
   C      -0.42067958504616E-08    -0.34423327927495E-08     0.57349918147082E-08
   C      -0.22166067108081E-07     0.15455171398977E-07    -0.88056703535012E-09
   C       0.11025383926974E-07     0.16719060934185E-07    -0.48427619003324E-09
   C      -0.57361516000098E-08     0.23530267914992E-09     0.37647087443087E-10
   C      -0.58980492056016E-08     0.16592506532119E-07     0.69827790410311E-10
   C      -0.52185593641752E-08    -0.10339625602728E-07    -0.49829422477687E-09
   C      -0.17076527654269E-07     0.10575322674165E-07     0.16425116393583E-10
   C      -0.26765521742960E-08    -0.14791438220653E-07    -0.48827409341754E-09
   C       0.32783630630318E-09     0.12380914920236E-07    -0.48362514899211E-09
   C      -0.12397242960004E-07    -0.16764723712357E-07     0.10625933899111E-10
   C      -0.85347072239579E-08     0.23166687673050E-07     0.97778103434137E-10
   C      -0.25730925477148E-09     0.11517065526028E-07     0.57334096472959E-10
   C      -0.29767792934456E-07     0.45883496577853E-08     0.79940759041968E-10
   C       0.57493424043234E-08    -0.63526715961946E-08     0.22824594132022E-10
   C      -0.11363226455550E-07    -0.82305942103171E-08     0.85573149148864E-10
   C      -0.11122872540511E-07    -0.34674765764108E-08     0.50039289786112E-10
   C      -0.46845847842711E-08     0.66849155069325E-08     0.92288116261918E-10
   C       0.50055768748408E-08     0.19102572875924E-08     0.23133002697730E-10
   C      -0.28894816921873E-07    -0.26379962134971E-08    -0.49120318803522E-09
   C      -0.14695011246204E-07     0.37335020614908E-07    -0.49925092073580E-09
   C      -0.41438577602051E-07    -0.14858718797716E-07    -0.80155268214010E-09
   C      -0.24862620168297E-10     0.95247644396636E-08    -0.49112057859798E-09
   C       0.16562457163980E-07    -0.82721894501318E-08     0.53169007322811E-10
   C       0.89886136774019E-08    -0.33803288312921E-08     0.47403655359781E-10
   C      -0.12729027922554E-07    -0.86437807608664E-08    -0.47418682409794E-09
   C      -0.21163701024042E-07     0.44797750702795E-07    -0.94560505191342E-09
   C       0.11472390655758E-07     0.56882394997982E-08     0.57938655937401E-08
   C      -0.85479735134959E-07    -0.25368443321296E-06    -0.42073066243749E-07
   C       0.49871083675830E-07    -0.31900681058396E-07     0.57704430646337E-08
   C       0.10868475612742E-07    -0.18691569806650E-07    -0.49419994371579E-09
   C       0.77087321774450E-08     0.16278614224252E-08     0.98516081073510E-10
   C       0.15525640484452E-07     0.18824580076880E-07    -0.49150294227893E-09
   C       0.39834440839819E-07     0.20337329182709E-07     0.56785003344951E-08
   C      -0.10499621862961E-06     0.28852985428536E-06    -0.39382541386775E-07
   C      -0.31079239270305E-07     0.12230845721813E-06     0.33535123241896E-07
   C      -0.23953285309748E-07    -0.17104637964422E-08    -0.63362893865140E-09
   C      -0.28950924743515E-08     0.64591379901464E-08    -0.30213182199054E-09
   C      -0.72859039133921E-08    -0.63198854809073E-08    -0.30094657325524E-09
   C      -0.22616704557935E-07    -0.92657767377747E-08    -0.62343336058250E-09
   C      -0.28591454691377E-08    -0.14291842218516E-06     0.33620568936485E-07
   C       0.11128743470996E-05     0.68895688038308E-08     0.57589483626872E-06
   C       0.20647886147967E-05     0.55553045781163E-06     0.56858043462336E-06
   C      -0.26507255800500E-07    -0.47341476367993E-07    -0.41355393217294E-07
   C      -0.18833329705996E-07    -0.29290076860808E-08     0.18970045657820E-08
   C      -0.35795456060422E-08    -0.96223259070812E-08     0.61089836192652E-09
   C       0.82914717958006E-08    -0.11812586217088E-07     0.18800845795215E-08
   C      -0.87726355986721E-08     0.61133865948911E-07    -0.41435524371420E-07
   C       0.19828499208318E-05    -0.51866136988940E-06     0.58275465706309E-06
   C       0.19663599549523E-06     0.46717834440988E-08     0.33567513222104E-07
   C      -0.78409459192087E-07    -0.42572729912434E-07    -0.41226222740951E-07
   C      -0.23530660958119E-07    -0.17313078114023E-07     0.52330576607751E-08
   C      -0.26581862126288E-08    -0.24840756959106E-08    -0.67155650480284E-09
   C      -0.48596601324953E-08    -0.20910020531678E-07    -0.66394109482384E-09
   C      -0.27958050226407E-07     0.13008502536042E-07     0.52410613351091E-08
   C      -0.60589515806902E-07     0.39246800531428E-07    -0.41537019112774E-07
   C       0.14407604932076E-07     0.13059801395825E-07    -0.64811155313495E-09
   C       0.16825091031746E-07    -0.10357991333084E-07    -0.60549767162218E-09
   C       0.65431833841925E-08     0.14065254495376E-07     0.18651841973125E-08
   C      -0.68711830473160E-08    -0.21913515404852E-07    -0.66929851351819E-09
   C       0.93712132265756E-08    -0.65535283277440E-08     0.51615792551330E-09
   C      -0.60817240048759E-08    -0.28676373030777E-08    -0.66191047618074E-09
   C       0.15025705275087E-07    -0.10209283072561E-07     0.19197788074952E-08
   C       0.12693243737305E-08     0.10044787740105E-07    -0.29761269239506E-09
   C       0.93165109310559E-08     0.40509840847821E-08     0.27146247834659E-09
   C      -0.92808137494822E-09    -0.56233896349960E-08    -0.31093838137894E-09
   C       0.22951203201802E-07    -0.59971958214171E-09     0.61623807859862E-09
   C       0.26802042507876E-08    -0.18431431009065E-08    -0.65891490063500E-09
   C       0.13357941302412E-07    -0.38468319604103E-07    -0.66099469156216E-09
   C       0.25225193002346E-07     0.74409651276945E-08     0.57664298194968E-09
   C      -0.49161942418146E-09    -0.85852686427574E-08    -0.29142524554555E-09
   C       0.15292704912822E-07     0.94734392870618E-08    -0.29866458589596E-10
   C       0.12532942317580E-07     0.11214397504906E-08    -0.18912053832876E-10
   C       0.43537305689815E-09     0.37106898622383E-08    -0.30990300976549E-09
   C       0.21368587500198E-07    -0.33388674101538E-07     0.18601442348841E-08
   C       0.28974614297720E-07    -0.48755363100504E-08     0.52243191558279E-08
   C      -0.13749673420325E-08     0.20667152584370E-08     0.19327351142811E-08
   C       0.21556771374155E-07     0.32756666937542E-07    -0.64929129457444E-09
   C      -0.11084988963514E-07     0.14374806918372E-07     0.26608971789961E-09
   C      -0.10743539219427E-07    -0.26638361682194E-08    -0.27822071706963E-10
   C       0.58883647126977E-08    -0.15851454021427E-07     0.26831387865281E-09
   C       0.27409458958794E-07    -0.20256481510991E-07    -0.60398945932509E-09
   C       0.53281305289263E-07     0.15092570270224E-07    -0.41254153385061E-07
   C       0.64166586026830E-07    -0.52490770567277E-07    -0.41520881162519E-07

   Forces acting on atoms (au):
   C      -0.85564454815424E-02    -0.82450333193890E-04    -0.19999177802935E-02
   C       0.65165969754462E-03    -0.48124985380779E-04    -0.61745768005469E-04
   C       0.26267270292967E-04     0.13139020384400E-05    -0.11646658436588E-05
   C       0.14702648323948E-04    -0.27965397452793E-05     0.23887310161966E-07
   C       0.59607773377226E-05     0.37701553065846E-06     0.46233845174988E-07
   C       0.65259084604918E-05     0.42879773448763E-05    -0.13259725418108E-05
   C       0.64178675160990E-03     0.61633016831495E-04    -0.57143950934576E-04
   C      -0.13567398840601E-03    -0.48288589267258E-03    -0.59020192407471E-04
   C      -0.12715360496680E-03     0.49769523689125E-03    -0.59843577419615E-04
   C       0.56194357794585E-04     0.14222436686789E-04     0.84103223917491E-05
   C       0.12679390883886E-04    -0.83188873128890E-05    -0.70303760707621E-06
   C       0.64447413705979E-05     0.84343153596763E-05     0.11253307742175E-06
   C       0.10089503082322E-04     0.19969765239547E-04    -0.72032522257123E-06
   C       0.52759091987063E-04    -0.21180016761066E-04     0.84854537069693E-05
   C      -0.34114836996325E-04    -0.17892308019560E-04    -0.12196885269907E-05
   C       0.17008802575454E-05    -0.21177369369363E-05     0.82771572579534E-05
   C      -0.29811321897580E-04     0.23548292738089E-04    -0.12511984053305E-05
   C       0.56018308637978E-05     0.25846006687680E-04    -0.71634956588948E-06
   C       0.15602353779453E-05     0.40542923054428E-05     0.81218314754246E-07
   C       0.16482901155768E-05     0.70695821547004E-05     0.84213575797889E-07
   C      -0.47033380388007E-05    -0.21285107107491E-04    -0.72104911922096E-06
   C      -0.11113055998076E-04     0.63707012368923E-05     0.15715776007056E-07
   C      -0.54696929010213E-05    -0.23078193037512E-04    -0.70669574567048E-06
   C      -0.36525505245670E-05     0.22390596224020E-04    -0.69688551598956E-06
   C      -0.77473560750588E-05    -0.91004358825520E-05     0.36922633375252E-07
   C      -0.72582614724823E-05     0.16500267932667E-04     0.11920146259346E-06
   C      -0.13935819137076E-05     0.74548971111636E-05     0.60823552074398E-07
   C      -0.20027842154188E-04     0.20552660778433E-05     0.12889709336139E-06
   C       0.40699164468789E-05    -0.78445677095641E-05     0.26545859932111E-07
   C      -0.90511862307973E-05    -0.66446463678583E-05     0.12132062981276E-06
   C      -0.76009189261841E-05    -0.24856489377802E-05     0.71497066319593E-07
   C      -0.52066143855146E-05     0.56386817789909E-05     0.11662557623921E-06
   C       0.38461819267985E-05     0.62308749173393E-05     0.26129471677507E-07
   C      -0.22572943249718E-04    -0.45855920513058E-05    -0.70608504955568E-06
   C      -0.13894062646856E-04     0.26498445209894E-04    -0.70441141114550E-06
   C      -0.42229580739712E-04    -0.23248751796923E-04    -0.11668472396215E-05
   C      -0.15661313712835E-05     0.72192109073658E-05    -0.71602402962026E-06
   C       0.16070094522514E-04    -0.82288254895934E-05     0.88527550698351E-07
   C       0.11371902102974E-04     0.16177250380624E-05     0.79272071935613E-07
   C      -0.95478095190309E-05    -0.58734696523815E-05    -0.70458935018395E-06
   C      -0.29930597782729E-04     0.42539102475701E-04    -0.13118069091489E-05
   C       0.12501655658625E-04     0.44071612843226E-05     0.84373537243669E-05
   C      -0.12440703705768E-03    -0.39033146047469E-03    -0.61295098959647E-04
   C       0.61853133866819E-04    -0.34259638018299E-04     0.83576899477205E-05
   C       0.15494163869429E-04    -0.21587962161783E-04    -0.71431324070119E-06
   C       0.51486100258795E-05     0.15268285446942E-05     0.11041639912496E-06
   C       0.18584108350671E-04     0.22650526619828E-04    -0.69998890831367E-06
   C       0.55938139145219E-04     0.29038554697965E-04     0.82217207871987E-05
   C      -0.13448422972041E-03     0.41231980724977E-03    -0.57526252511576E-04
   C      -0.29678508760962E-04     0.17639070730760E-03     0.48587910084908E-04
   C      -0.31008760376835E-04     0.40285629610878E-07    -0.91327434090379E-06
   C      -0.40230499794071E-05     0.27773086429179E-05    -0.43286329779516E-06
   C      -0.65721537978686E-05    -0.28525905315198E-05    -0.46000378202963E-06
   C      -0.30299974267868E-04    -0.69852797044417E-05    -0.89789106815025E-06
   C      -0.13812331840591E-04    -0.18915337417985E-03     0.48733382651374E-04
   C       0.16026465979261E-02     0.85721073420667E-05     0.83509425746563E-03
   C       0.29773876210757E-02     0.80112045869692E-03     0.82462350690862E-03
   C      -0.30883005957052E-04    -0.86186116555322E-04    -0.59854637054331E-04
   C      -0.11466146073321E-04     0.79485098110303E-06     0.27301486289123E-05
   C      -0.68630036884738E-05    -0.55155671598226E-05     0.87695585365012E-06
   C       0.54768793627234E-05    -0.97049291031950E-05     0.27493511332009E-05
   C      -0.19724082140863E-04     0.94723217513345E-04    -0.59994998031870E-04
   C       0.28646787579482E-02    -0.73592951067750E-03     0.84492281666735E-03
   C       0.28417078456639E-03     0.26225927405846E-05     0.48665611750656E-04
   C      -0.10079852284905E-03    -0.63358783937487E-04    -0.59710560473655E-04
   C      -0.40845996391251E-04    -0.26666013928991E-04     0.75672460395425E-05
   C      -0.42114275048110E-05    -0.52105944629191E-05    -0.96454232067755E-06
   C      -0.56871022620558E-05    -0.96574770937452E-05    -0.96043964735995E-06
   C      -0.43061211813945E-04     0.23513124184191E-04     0.75730685280998E-05
   C      -0.89108593918134E-04     0.60894649247531E-04    -0.60135243881036E-04
   C       0.18131010264398E-04     0.21763428083421E-04    -0.93366230215488E-06
   C       0.19889138487033E-04    -0.19426677708091E-04    -0.88391617588727E-06
   C       0.11936288914008E-04     0.64028298347192E-05     0.27019904817180E-05
   C      -0.11195634954055E-04    -0.15040191914283E-04    -0.95942764201558E-06
   C      -0.20331786420237E-05    -0.40537676340887E-05     0.74546154322787E-06
   C      -0.10413369923143E-04    -0.37168197538889E-06    -0.97500654511446E-06
   C       0.17662617428520E-04    -0.39318547094044E-05     0.27809728160131E-05
   C      -0.10371505200965E-05     0.85867527794162E-05    -0.45172154406661E-06
   C       0.17862496529664E-04     0.33789814626279E-05     0.37934805487509E-06
   C      -0.26179091875970E-05    -0.47609305548162E-05    -0.43919183075671E-06
   C       0.15877370060312E-04    -0.36477081105945E-05     0.88627336847010E-06
   C       0.17877152916700E-05     0.19840699047998E-05    -0.96968237124748E-06
   C       0.84394714070459E-05    -0.26164997109914E-04    -0.95975122278310E-06
   C       0.16841461925961E-04     0.77922091827963E-05     0.87417844283951E-06
   C      -0.62832707481455E-07    -0.49270372360316E-05    -0.44029088982571E-06
   C       0.11774549226214E-04     0.94976181928718E-05    -0.23921611391879E-07
   C       0.10299008028387E-04    -0.27688882130603E-05    -0.33301071901300E-07
   C       0.10972417493089E-05     0.21006973129901E-05    -0.44668179739889E-06
   C       0.17818836415057E-04    -0.25757154112013E-04     0.26994425794018E-05
   C       0.20364474684017E-04    -0.33062038783751E-05     0.75726091473054E-05
   C       0.41350971775280E-05     0.62957979399435E-05     0.27724563782182E-05
   C       0.21385582843738E-04     0.35255094946819E-04    -0.93649917823722E-06
   C      -0.88893486731247E-05     0.18249281385712E-04     0.37644178902927E-06
   C      -0.11090397085218E-04    -0.11436070211960E-05    -0.29162265619696E-07
   C       0.18893986898721E-05    -0.17944138324734E-04     0.38139566562091E-06
   C       0.25063958565298E-04    -0.27269361175909E-04    -0.88543421620925E-06
   C       0.81240442032547E-04     0.31922800814866E-04    -0.59748034447998E-04
   C       0.88125246116774E-04    -0.55064021637739E-04    -0.60088796074905E-04



   Partial temperatures (for each ionic specie) 
   Species  Temp (K)   Mean Square Displacement (a.u.)
        1   1.15E-03     2.7976E-11

  nfi     ekinc              temph  tempp     etot                 enthal               econs                econt              vnhh    xnhh0   vnhp    xnhp0
    200    0.000002204077529    0.0    0.00    -560.706557527916    -560.706557527916    -560.706556991869    -560.706549042981   0.0000   0.0000  -0.0006  -0.0047

   writing restart file (with schema): ./out/graphene_69.save/
     restart      :      0.87s CPU      4.08s WALL (       1 calls)
    201    0.000002292449418    0.0    0.00    -560.706557767575    -560.706557767575    -560.706557079006    -560.706549043389   0.0000   0.0000  -0.0007  -0.0060
    202    0.000002341414782    0.0    0.00    -560.706557986531    -560.706557986531    -560.706557125841    -560.706549043591   0.0000   0.0000  -0.0008  -0.0075
    203    0.000002349268833    0.0    0.00    -560.706558183083    -560.706558183083    -560.706557130495    -560.706549043590   0.0000   0.0000  -0.0009  -0.0091
    204    0.000002315832129    0.0    0.00    -560.706558387198    -560.706558387198    -560.706557122798    -560.706549073585   0.0000   0.0000  -0.0010  -0.0110
    205    0.000002242443984    0.0    0.00    -560.706558509616    -560.706558509616    -560.706557013378    -560.706549043082   0.0000   0.0000  -0.0010  -0.0130
    206    0.000002131905123    0.0    0.00    -560.706558643225    -560.706558643225    -560.706556895049    -560.706549042327   0.0000   0.0000  -0.0011  -0.0151
    207    0.000001988357427    0.0    0.00    -560.706558762511    -560.706558762511    -560.706556742226    -560.706549041849   0.0000   0.0000  -0.0012  -0.0175
    208    0.000001817105631    0.0    0.01    -560.706558872007    -560.706558872007    -560.706556559354    -560.706549041063   0.0000   0.0000  -0.0013  -0.0200
    209    0.000001624398865    0.0    0.01    -560.706558978011    -560.706558978011    -560.706556352577    -560.706549040159   0.0000   0.0000  -0.0014  -0.0226
    210    0.000001417191053    0.0    0.01    -560.706559087553    -560.706559087553    -560.706556128679    -560.706549039284   0.0000   0.0000  -0.0015  -0.0254
    211    0.000001202903328    0.0    0.01    -560.706559207976    -560.706559207976    -560.706555894680    -560.706549038379   0.0000   0.0000  -0.0015  -0.0284
    212    0.000000989193522    0.0    0.01    -560.706559346963    -560.706559346963    -560.706555657901    -560.706549037468   0.0000   0.0000  -0.0016  -0.0316
    213    0.000000783716273    0.0    0.01    -560.706559512211    -560.706559512211    -560.706555425663    -560.706549036603   0.0000   0.0000  -0.0017  -0.0349
    214    0.000000593862838    0.0    0.01    -560.706559711077    -560.706559711077    -560.706555204958    -560.706549035797   0.0000   0.0000  -0.0018  -0.0384
    215    0.000000426491318    0.0    0.01    -560.706559950364    -560.706559950364    -560.706555002230    -560.706549035068   0.0000   0.0000  -0.0019  -0.0421
    216    0.000000287674294    0.0    0.01    -560.706560236073    -560.706560236073    -560.706554823122    -560.706549034448   0.0000   0.0000  -0.0020  -0.0459
    217    0.000000182488494    0.0    0.01    -560.706560573171    -560.706560573171    -560.706554672249    -560.706549033960   0.0000   0.0000  -0.0020  -0.0499
    218    0.000000114849301    0.0    0.01    -560.706560965414    -560.706560965414    -560.706554553037    -560.706549033625   0.0000   0.0000  -0.0021  -0.0541
    219    0.000000087377860    0.0    0.02    -560.706561415219    -560.706561415219    -560.706554467589    -560.706549033463   0.0000   0.0000  -0.0022  -0.0584
    220    0.000000101294151    0.0    0.02    -560.706561893376    -560.706561893376    -560.706554386388    -560.706549003298   0.0000   0.0000  -0.0023  -0.0629
    221    0.000000156346164    0.0    0.02    -560.706562459694    -560.706562459694    -560.706554368906    -560.706549003446   0.0000   0.0000  -0.0024  -0.0675
    222    0.000000250796345    0.0    0.02    -560.706563082297    -560.706563082297    -560.706554382876    -560.706549003994   0.0000   0.0000  -0.0025  -0.0723
    223    0.000000381482802    0.0    0.02    -560.706563757418    -560.706563757418    -560.706554424085    -560.706549004539   0.0000   0.0000  -0.0025  -0.0773
    224    0.000000543950932    0.0    0.02    -560.706564510777    -560.706564510777    -560.706554517767    -560.706549035446   0.0000   0.0000  -0.0026  -0.0825
    225    0.000000732633813    0.0    0.02    -560.706565276294    -560.706565276294    -560.706554597338    -560.706549036403   0.0000   0.0000  -0.0027  -0.0878
    226    0.000000941061848    0.0    0.02    -560.706566077083    -560.706566077083    -560.706554685395    -560.706549037218   0.0000   0.0000  -0.0028  -0.0933
    227    0.000001162087798    0.0    0.03    -560.706566906129    -560.706566906129    -560.706554774392    -560.706549038262   0.0000   0.0000  -0.0029  -0.0990
    228    0.000001388126018    0.0    0.03    -560.706567755392    -560.706567755392    -560.706554855723    -560.706549039320   0.0000   0.0000  -0.0030  -0.1048
    229    0.000001611413365    0.0    0.03    -560.706568616778    -560.706568616778    -560.706554920691    -560.706549040297   0.0000   0.0000  -0.0030  -0.1108
    230    0.000001824286915    0.0    0.03    -560.706569482440    -560.706569482440    -560.706554960802    -560.706549041236   0.0000   0.0000  -0.0031  -0.1169
    231    0.000002019461194    0.0    0.03    -560.706570314622    -560.706570314622    -560.706554937616    -560.706549011895   0.0000   0.0000  -0.0032  -0.1232
    232    0.000002190297049    0.0    0.04    -560.706571166724    -560.706571166724    -560.706554903825    -560.706549012555   0.0000   0.0000  -0.0033  -0.1297
    233    0.000002331042499    0.0    0.04    -560.706571942425    -560.706571942425    -560.706554762371    -560.706548952902   0.0000   0.0000  -0.0034  -0.1364
    234    0.000002437041209    0.0    0.04    -560.706572757037    -560.706572757037    -560.706554627810    -560.706548953177   0.0000   0.0000  -0.0035  -0.1432
    235    0.000002504903201    0.0    0.04    -560.706573577365    -560.706573577365    -560.706554466184    -560.706548983886   0.0000   0.0000  -0.0035  -0.1502
    236    0.000002532629919    0.0    0.04    -560.706574340037    -560.706574340037    -560.706554213353    -560.706548984006   0.0000   0.0000  -0.0036  -0.1573
    237    0.000002519686071    0.0    0.05    -560.706575074362    -560.706575074362    -560.706553897852    -560.706548983767   0.0000   0.0000  -0.0037  -0.1646
    238    0.000002467006103    0.0    0.05    -560.706575781314    -560.706575781314    -560.706553519861    -560.706548983620   0.0000   0.0000  -0.0038  -0.1721
    239    0.000002376947809    0.0    0.05    -560.706576462546    -560.706576462546    -560.706553080189    -560.706548983272   0.0000   0.0000  -0.0039  -0.1798
    240    0.000002253196914    0.0    0.05    -560.706577121347    -560.706577121347    -560.706552581224    -560.706548982726   0.0000   0.0000  -0.0039  -0.1876
    241    0.000002100628774    0.0    0.06    -560.706577732114    -560.706577732114    -560.706551996396    -560.706548951892   0.0000   0.0000  -0.0040  -0.1956
    242    0.000001925141821    0.0    0.06    -560.706578360667    -560.706578360667    -560.706551390503    -560.706548951077   0.0000   0.0000  -0.0041  -0.2037
    243    0.000001733453170    0.0    0.06    -560.706578983441    -560.706578983441    -560.706550738902    -560.706548950385   0.0000   0.0000  -0.0042  -0.2120
    244    0.000001532857770    0.0    0.06    -560.706579606992    -560.706579606992    -560.706550047019    -560.706548949466   0.0000   0.0000  -0.0043  -0.2205
    245    0.000001330975288    0.0    0.07    -560.706580238774    -560.706580238774    -560.706549321118    -560.706548948547   0.0000   0.0000  -0.0044  -0.2292
    246    0.000001135491089    0.0    0.07    -560.706580886140    -560.706580886140    -560.706548567311    -560.706548947700   0.0000   0.0000  -0.0044  -0.2380
    247    0.000000953894604    0.0    0.07    -560.706581556106    -560.706581556106    -560.706547791342    -560.706548946889   0.0000   0.0000  -0.0045  -0.2470
    248    0.000000793218919    0.0    0.08    -560.706582225089    -560.706582225089    -560.706546968324    -560.706548915971   0.0000   0.0000  -0.0046  -0.2561
    249    0.000000659789040    0.0    0.08    -560.706582989461    -560.706582989461    -560.706546193299    -560.706548945510   0.0000   0.0000  -0.0047  -0.2654

 * Physical Quantities at step:   250

   from rhoofr: total integrated electronic density
   in g-space =    392.000000   in r-space =   392.000000
     Total Electronic Pressure (GPa)       -2.58080    250
     Pressure of Nuclei (GPa)             0.00003    250
     Pressure Total (GPa)            -2.58078    250


                total energy =     -560.70658376381 Hartree a.u.
              kinetic energy =      403.01816 Hartree a.u.
        electrostatic energy =     -790.03276 Hartree a.u.
                         esr =        0.00006 Hartree a.u.
                       eself =     1251.08299 Hartree a.u.
      pseudopotential energy =      -15.20344 Hartree a.u.
  n-l pseudopotential energy =       11.34761 Hartree a.u.
 exchange-correlation energy =     -169.83615 Hartree a.u.
           average potential =        0.00000 Hartree a.u.



   Eigenvalues (eV), kp =   1 , spin =  1

  -21.64  -21.16  -21.16  -21.16  -21.16  -21.16  -21.16  -20.21  -20.21  -20.21
  -20.21  -20.21  -20.21  -19.74  -19.74  -19.74  -19.74  -19.74  -19.74  -18.36
  -18.36  -18.36  -18.36  -18.36  -18.36  -18.36  -18.36  -18.36  -18.36  -18.36
  -18.35  -17.47  -17.46  -17.46  -17.46  -17.46  -17.46  -16.19  -16.19  -16.19
  -16.19  -16.19  -16.18  -16.08  -16.08  -16.08  -16.08  -16.08  -16.08  -15.19
  -15.19  -15.19  -15.19  -15.19  -15.19  -14.24  -14.24  -14.24  -14.24  -14.24
  -14.24  -13.69  -13.68  -13.68  -13.68  -13.68  -13.68  -12.32  -12.32  -12.32
  -12.32  -12.32  -12.32  -12.32  -12.32  -12.32  -12.32  -12.32  -12.31  -12.24
  -12.24  -12.24  -12.24  -12.24  -12.24  -10.66  -10.66  -10.66  -10.66  -10.65
  -10.65  -10.18  -10.18  -10.18  -10.18  -10.18  -10.18   -9.98   -9.67   -9.67
   -9.67   -9.67   -9.67   -9.67   -9.67   -9.67   -9.67   -9.67   -9.67   -9.67
   -9.41   -9.41   -9.41   -9.41   -9.41   -9.40   -9.20   -9.19   -9.19   -9.19
   -9.19   -9.19   -8.70   -8.70   -8.70   -8.70   -8.70   -8.69   -8.29   -8.29
   -8.29   -8.29   -8.29   -8.28   -8.08   -8.08   -8.08   -8.08   -8.08   -8.07
   -7.80   -7.80   -7.80   -7.80   -7.80   -7.80   -7.75   -7.75   -7.75   -7.75
   -7.75   -7.74   -7.17   -7.17   -7.17   -7.17   -7.17   -7.16   -6.35   -6.34
   -6.34   -6.34   -6.34   -6.34   -6.19   -6.19   -6.19   -6.19   -6.19   -6.19
   -6.19   -6.19   -6.19   -6.19   -6.19   -6.18   -5.48   -5.47   -5.38   -5.38
   -5.38   -5.38   -5.38   -5.38   -4.29   -4.29   -4.29   -4.29   -4.29   -4.28
   -3.88   -3.88   -3.88   -3.88   -3.88   -3.88


   CELL_PARAMETERS
   32.65212694  -16.32606347    0.00000000
    0.00000000   28.27757141    0.00000000
    0.00000000    0.00000000   28.34589187

   System Density [g/cm^3] :              0.5039705731


   System Volume [A.U.^3] :          26172.4097023480


   Center of mass square displacement (a.u.):   0.000000

   Total stress (GPa)
       -3.84193274         0.00271959        -0.00006342
        0.00271959        -3.84031983        -0.00000013
       -0.00006342        -0.00000013        -0.06007359
   ATOMIC_POSITIONS
   C      -0.23207585371118E+01     0.40396224047921E+01     0.14184676908690E+02
   C       0.23325219165792E+01     0.40396314784190E+01     0.14172926606350E+02
   C       0.69968967954707E+01     0.40396458538183E+01     0.14172945442825E+02
   C       0.11661486659543E+02     0.40396484761306E+01     0.14172945953392E+02
   C       0.16326078840365E+02     0.40396446692850E+01     0.14172945952834E+02
   C       0.20990671321136E+02     0.40396447846798E+01     0.14172945396315E+02
   C       0.25655465315475E+02     0.40396566312890E+01     0.14172928116467E+02
   C      -0.46646123064561E+01     0.80791427120309E+01     0.14172927504227E+02
   C      -0.24573341955479E-04     0.80794548331514E+01     0.14172927222145E+02
   C       0.46646183526191E+01     0.80793114345296E+01     0.14172948612921E+02
   C       0.93291959384901E+01     0.80792945988765E+01     0.14172945710047E+02
   C       0.13993779739801E+02     0.80792970025652E+01     0.14172945972899E+02
   C       0.18658375666112E+02     0.80793014635212E+01     0.14172945709198E+02
   C       0.23322977199059E+02     0.80792906879734E+01     0.14172948632753E+02
   C      -0.69968796536801E+01     0.12118942794466E+02     0.14172945425835E+02
   C      -0.23322778822120E+01     0.12118952990494E+02     0.14172948607570E+02
   C       0.23322986788450E+01     0.12118960028981E+02     0.14172945418915E+02
   C       0.69968929551340E+01     0.12118961225517E+02     0.14172945708980E+02
   C       0.11661491247866E+02     0.12118955341589E+02     0.14172945961498E+02
   C       0.16326080884941E+02     0.12118945973045E+02     0.14172945957737E+02
   C       0.20990664702027E+02     0.12118942156073E+02     0.14172945708781E+02
   C      -0.93291639947123E+01     0.16158602872936E+02     0.14172945948610E+02
   C      -0.46645801556887E+01     0.16158597173044E+02     0.14172945708367E+02
   C       0.87115875031680E-05     0.16158614693500E+02     0.14172945710069E+02
   C       0.46646039743555E+01     0.16158609565564E+02     0.14172945955970E+02
   C       0.93291914331588E+01     0.16158602221343E+02     0.14172945971897E+02
   C       0.13993779568960E+02     0.16158603265443E+02     0.14172945955574E+02
   C       0.18658374869349E+02     0.16158603591665E+02     0.14172945975451E+02
   C      -0.11661462800421E+02     0.20198256325132E+02     0.14172945951950E+02
   C      -0.69968718829469E+01     0.20198258899035E+02     0.14172945974259E+02
   C      -0.23322811035831E+01     0.20198258998194E+02     0.14172945958514E+02
   C       0.23323058254082E+01     0.20198258146918E+02     0.14172945973025E+02
   C       0.69968958214874E+01     0.20198261491733E+02     0.14172945949585E+02
   C       0.11661488171867E+02     0.20198256545560E+02     0.14172945711892E+02
   C       0.16326074857889E+02     0.20198253513875E+02     0.14172945711739E+02
   C      -0.13993761431282E+02     0.24237903411591E+02     0.14172945440843E+02
   C      -0.93291682680653E+01     0.24237910702799E+02     0.14172945705529E+02
   C      -0.46645764165706E+01     0.24237910544960E+02     0.14172945962300E+02
   C       0.14643226370259E-04     0.24237915086182E+02     0.14172945959288E+02
   C       0.46646027832895E+01     0.24237912502948E+02     0.14172945709396E+02
   C       0.93291823273216E+01     0.24237913767928E+02     0.14172945401519E+02
   C       0.13993783106522E+02     0.24237910733826E+02     0.14172948620577E+02
   C      -0.16326086694318E+02     0.28277430051805E+02     0.14172926780947E+02
   C      -0.11661447710982E+02     0.28277559790191E+02     0.14172948634190E+02
   C      -0.69968676993597E+01     0.28277560452942E+02     0.14172945706401E+02
   C      -0.23322841928887E+01     0.28277564557333E+02     0.14172945970758E+02
   C       0.23323105424208E+01     0.28277569159543E+02     0.14172945712369E+02
   C       0.69969126650254E+01     0.28277572525142E+02     0.14172948588010E+02
   C       0.11661455991298E+02     0.28277692060537E+02     0.14172927960962E+02
   C       0.23323056899177E+01     0.13465973405548E+01     0.14172961689422E+02
   C       0.69968885437271E+01     0.13465452231719E+01     0.14172945645919E+02
   C       0.11661484592884E+02     0.13465418597869E+01     0.14172945788550E+02
   C       0.16326075219876E+02     0.13465464203918E+01     0.14172945783041E+02
   C       0.20990656904273E+02     0.13465453941922E+01     0.14172945650502E+02
   C       0.25655246892685E+02     0.13464953567910E+01     0.14172961740592E+02
   C       0.30320341058815E+02     0.13465461992449E+01     0.14173219029199E+02
   C       0.95111550439886E-03     0.53864540849653E+01     0.14173215712720E+02
   C       0.46645990893022E+01     0.53861615968252E+01     0.14172926215564E+02
   C       0.93291950482368E+01     0.53861998142228E+01     0.14172946831781E+02
   C       0.13993777642430E+02     0.53861995571625E+01     0.14172946224427E+02
   C       0.18658368897175E+02     0.53861980893269E+01     0.14172946833981E+02
   C       0.23322953878173E+02     0.53862304696818E+01     0.14172926185553E+02
   C       0.27988457577950E+02     0.53859653561092E+01     0.14173222152145E+02
   C      -0.23321959173686E+01     0.94258490811017E+01     0.14172961718880E+02
   C       0.23322810300474E+01     0.94258322394370E+01     0.14172926264954E+02
   C       0.69968800656856E+01     0.94258411055304E+01     0.14172948443820E+02
   C       0.11661484268421E+02     0.94258478247333E+01     0.14172945615584E+02
   C       0.16326074177534E+02     0.94258574787835E+01     0.14172945615012E+02
   C       0.20990649945378E+02     0.94258602708783E+01     0.14172948448782E+02
   C       0.25655225711159E+02     0.94258689466736E+01     0.14172926126620E+02
   C      -0.46645733583352E+01     0.13465511408372E+02     0.14172945640644E+02
   C       0.15789510886067E-04     0.13465495096514E+02     0.14172945653434E+02
   C       0.46646063397567E+01     0.13465498916856E+02     0.14172946822622E+02
   C       0.93291867874054E+01     0.13465506741476E+02     0.14172945615831E+02
   C       0.13993772062726E+02     0.13465504774799E+02     0.14172946184154E+02
   C       0.18658365904585E+02     0.13465505231710E+02     0.14172945611099E+02
   C       0.23322963283466E+02     0.13465507313834E+02     0.14172946845529E+02
   C      -0.69968743080126E+01     0.17505156099761E+02     0.14172945784382E+02
   C      -0.23322750057551E+01     0.17505156072786E+02     0.14172946059437E+02
   C       0.23323051493551E+01     0.17505156629453E+02     0.14172945787959E+02
   C       0.69968926986080E+01     0.17505154360609E+02     0.14172946226448E+02
   C       0.11661485209968E+02     0.17505159099029E+02     0.14172945613075E+02
   C       0.16326072668085E+02     0.17505162351451E+02     0.14172945614936E+02
   C       0.20990660631097E+02     0.17505157711604E+02     0.14172946226283E+02
   C      -0.93291668754793E+01     0.21544811370268E+02     0.14172945786580E+02
   C      -0.46645788070585E+01     0.21544810525614E+02     0.14172945926598E+02
   C       0.11237954320841E-04     0.21544806368581E+02     0.14172945924051E+02
   C       0.46646018848610E+01     0.21544808756893E+02     0.14172945786816E+02
   C       0.93291902657846E+01     0.21544812602871E+02     0.14172946821749E+02
   C       0.13993776173051E+02     0.21544810431439E+02     0.14172948449007E+02
   C       0.18658374031359E+02     0.21544812757652E+02     0.14172946841385E+02
   C      -0.11661460147825E+02     0.25584467706599E+02     0.14172945639266E+02
   C      -0.69968719556716E+01     0.25584466838116E+02     0.14172946059902E+02
   C      -0.23322841358148E+01     0.25584463452683E+02     0.14172945926184E+02
   C       0.23323040437783E+01     0.25584459536017E+02     0.14172946059158E+02
   C       0.69968969191003E+01     0.25584455454380E+02     0.14172945654844E+02
   C       0.11661513095446E+02     0.25584479214271E+02     0.14172926252083E+02
   C       0.16326100574460E+02     0.25584453475246E+02     0.14172926143904E+02

   ATOMIC_VELOCITIES
   C      -0.50333614592900E-04    -0.40226538233582E-06    -0.12380876766199E-04
   C       0.40205089248537E-05    -0.27495462573085E-06    -0.34639907356312E-06
   C       0.36390977833829E-07    -0.16294546887766E-08    -0.11339858424006E-07
   C       0.25734634281060E-07     0.34019039534060E-07     0.54218776581036E-09
   C       0.60038658955643E-07    -0.25837621528921E-07     0.45839662023631E-09
   C       0.11328046783185E-06    -0.26595478879103E-07    -0.12150858872119E-07
   C       0.39392141785993E-05     0.21472436470348E-06    -0.31864825760970E-06
   C      -0.51230504436989E-06    -0.28385633602536E-05    -0.32966008300611E-06
   C      -0.53419105090036E-06     0.28333708098540E-05    -0.33534021704057E-06
   C       0.29219121845647E-06     0.18357008007315E-06     0.49012685787603E-07
   C       0.86739818724598E-07    -0.81029570542634E-07    -0.40728942645361E-08
   C      -0.92821835901755E-08    -0.29769953381066E-07     0.68828294895322E-09
   C       0.93486305766998E-07     0.46971130826725E-07    -0.40601979807884E-08
   C       0.30013316149545E-06    -0.13665694492648E-06     0.49334982179847E-07
   C      -0.12400771368422E-06    -0.15833954305895E-06    -0.11699802690449E-07
   C       0.96143237464461E-07     0.87897796837314E-08     0.48883592413402E-07
   C      -0.13335405982601E-06     0.13015718659108E-06    -0.11786300671916E-07
   C      -0.48090199146110E-07     0.15523193276567E-06    -0.40537638857619E-08
   C       0.90649091471347E-07     0.50032680025239E-07     0.43028502212073E-09
   C       0.90587747970153E-07    -0.98667029837194E-07     0.44975960688340E-09
   C      -0.67233005835637E-08    -0.17574254261429E-06    -0.40928318555256E-08
   C       0.48397881788183E-07    -0.37156785910968E-07     0.46290945577943E-09
   C      -0.39515847212378E-07    -0.14475319813598E-06    -0.40852310005427E-08
   C      -0.49617594388607E-07     0.16244683223476E-06    -0.40485075652836E-08
   C       0.38732114719299E-07     0.57903483299005E-07     0.52721972253844E-09
   C       0.65721296967055E-08    -0.41018898865408E-07     0.69851157079702E-09
   C      -0.16279853220364E-07    -0.28259698561181E-07     0.42964145526677E-09
   C       0.63394644215439E-07    -0.28181134832853E-07     0.69726298815983E-09
   C      -0.78747674691700E-08    -0.41091283388818E-07     0.51914681362841E-09
   C       0.38043012208616E-08     0.40076880527589E-08     0.70922640818574E-09
   C       0.26531387394394E-07     0.87456650424449E-08     0.43824935862752E-09
   C      -0.14395056599126E-07    -0.27164845952391E-08     0.70210154091265E-09
   C      -0.16178921440028E-08     0.47254776189444E-07     0.48781187394725E-09
   C       0.28479639830705E-07    -0.33147864842722E-07    -0.40461980414453E-08
   C      -0.10167556586532E-07    -0.60680132928085E-07    -0.40882922702600E-08
   C      -0.88754100831885E-07    -0.14319169194035E-06    -0.11332408626280E-07
   C      -0.13720283938255E-07    -0.60182818774742E-08    -0.41211539110170E-08
   C       0.30741536702941E-07    -0.20838727748906E-07     0.45985684038416E-09
   C       0.51268330968288E-07     0.57077256966777E-07     0.42443155342464E-09
   C       0.16458668328276E-07     0.76181638160767E-08    -0.40123234516363E-08
   C      -0.14346313674797E-06     0.61618646864791E-07    -0.12189227415314E-07
   C       0.62323634098547E-07    -0.11827112803425E-07     0.49174670305932E-07
   C      -0.50820455209173E-06    -0.24100994640972E-05    -0.34314441397313E-06
   C       0.25460285336329E-06    -0.84197844648452E-07     0.49305860386327E-07
   C       0.85711699827669E-07    -0.75855137072636E-07    -0.41151808553261E-08
   C      -0.16001267717501E-07     0.58618780619884E-09     0.71203512905201E-09
   C       0.71869742775314E-07     0.83015347477992E-07    -0.40349969885117E-08
   C       0.28227191309657E-06     0.12520556631873E-06     0.48450647367402E-07
   C      -0.43571623029874E-06     0.23112604584243E-05    -0.32153298702580E-06
   C      -0.16748584034642E-07     0.89917267000028E-06     0.29167714060186E-06
   C      -0.12986201994501E-06     0.90588751105208E-08    -0.51639957778615E-08
   C      -0.18702593469261E-07    -0.40126119129159E-07    -0.28170730737522E-08
   C      -0.25096205041670E-08     0.29716042261031E-07    -0.28362439704885E-08
   C      -0.13326866691375E-06     0.14341977096178E-07    -0.50804229572288E-08
   C      -0.10580174032903E-06    -0.84874969264797E-06     0.29260384854831E-06
   C       0.89299170578891E-05     0.28214752164221E-07     0.51213171801156E-05
   C       0.16890159229909E-04     0.46149759155486E-05     0.50619649500392E-05
   C       0.45479629840288E-07    -0.61466786193366E-06    -0.37222618912105E-06
   C       0.61806049338653E-07     0.35203527698814E-07     0.16965987128937E-07
   C      -0.46678953129802E-07     0.28329305660304E-07     0.54629801802931E-08
   C      -0.88350634643954E-08     0.64166504623105E-08     0.16879361299530E-07
   C      -0.29620289207627E-08     0.57634365013160E-06    -0.37255314901272E-06
   C       0.16368187207206E-04    -0.42181516451324E-05     0.51774432528248E-05
   C       0.14951209069238E-05    -0.23014136344207E-07     0.29217796621582E-06
   C      -0.45800426227767E-06    -0.27069130790276E-06    -0.37115340330010E-06
   C      -0.27736919498769E-06    -0.16462633937040E-06     0.47702693655036E-07
   C      -0.23418845439284E-07    -0.47373990578250E-07    -0.60938342286097E-08
   C      -0.18730960445299E-07     0.10451620415083E-06    -0.60867089679583E-08
   C      -0.26001051092700E-06     0.16820082850540E-06     0.47822519823892E-07
   C      -0.50077573268322E-06     0.27251589965386E-06    -0.37373216073551E-06
   C       0.80165572750122E-07     0.13030044674403E-06    -0.52441202445568E-08
   C       0.72883089563209E-07    -0.14419966522624E-06    -0.50004656762993E-08
   C       0.85830410539577E-07    -0.66805450909960E-07     0.16729498339293E-07
   C      -0.71836187360735E-07     0.41069031030397E-07    -0.60808326833224E-08
   C      -0.13619685702151E-06     0.15735421848592E-07     0.47500229725701E-08
   C      -0.71427547935448E-07     0.25317701241390E-07    -0.61035805686913E-08
   C       0.69802571184493E-07     0.53287758499806E-07     0.17144180405609E-07
   C      -0.28670944588847E-07    -0.68348261733913E-08    -0.28295754220116E-08
   C       0.13949952625222E-06    -0.10396631181546E-07     0.23556136102855E-08
   C      -0.24380288969012E-07    -0.23940145494636E-08    -0.28351122211982E-08
   C      -0.45798472109717E-07    -0.34681274610341E-07     0.55141610538262E-08
   C      -0.66415121188635E-08     0.37126418097338E-07    -0.60843530254838E-08
   C      -0.34840562210983E-07     0.71596894151069E-07    -0.60915549948983E-08
   C      -0.55382232586730E-07     0.22524613891211E-07     0.54020152023642E-08
   C       0.94820121260896E-08     0.19780168648796E-07    -0.28093549920441E-08
   C      -0.63083133614747E-08     0.18105017040425E-07    -0.18214122101652E-09
   C      -0.23773010259265E-08    -0.56433226528281E-07    -0.17875974138537E-09
   C       0.91706057445857E-08    -0.11964400562135E-07    -0.28447912935952E-08
   C       0.12578231315697E-08     0.34687180683885E-07     0.16707775204324E-07
   C      -0.60565379341975E-07     0.97789351597431E-08     0.47758446370853E-07
   C       0.63573864880823E-07     0.44329640415298E-07     0.17160802997896E-07
   C       0.43498292216097E-07     0.94008221310676E-07    -0.52798877706134E-08
   C       0.47163693316057E-08     0.70715368133824E-07     0.23581249371777E-08
   C      -0.22143987669498E-07     0.89503856411115E-08    -0.18410221170537E-09
   C      -0.36700210505482E-07    -0.59098287863384E-07     0.23393198822350E-08
   C       0.27357448086777E-07    -0.12425698576418E-06    -0.49547193236020E-08
   C       0.48414027023438E-06     0.33098585114474E-06    -0.37134042988588E-06
   C       0.45553794612722E-06    -0.23536126504490E-06    -0.37351896229987E-06

   Forces acting on atoms (au):
   C      -0.63910186382948E-02    -0.28179303186954E-04    -0.18344028712584E-02
   C       0.55550674523690E-03    -0.39525088431012E-04    -0.37802000136508E-04
   C       0.69316510123005E-04     0.10145779142153E-04    -0.32744818955963E-05
   C       0.30240619496943E-04    -0.19049195188727E-04     0.20424854082274E-06
   C      -0.75271239655474E-05     0.10837441038458E-04     0.24278449234385E-06
   C      -0.15621372984915E-04     0.15031667133718E-04    -0.34302763053915E-05
   C       0.55161931107549E-03     0.10205160439610E-03    -0.34182486844794E-04
   C       0.15261970286777E-04    -0.31934915688106E-03    -0.35398818425755E-04
   C       0.49322168065649E-04     0.36665039046634E-03    -0.36533956109084E-04
   C       0.18943924330207E-04    -0.56584111359435E-04     0.61232977915036E-05
   C      -0.17996409494564E-05     0.66996203690651E-05    -0.44664941445266E-06
   C       0.18129343479155E-04     0.36163754308992E-04     0.59597643657519E-07
   C      -0.12512407533896E-04     0.38472584221089E-04    -0.46175336735627E-06
   C       0.78057998116838E-05     0.17801360766191E-04     0.61693824019882E-05
   C      -0.30186559413655E-04     0.18882019025125E-04    -0.33660284943510E-05
   C      -0.10456505901885E-04    -0.84891519868761E-05     0.60719618930880E-05
   C      -0.14681815992140E-04     0.64908965781812E-05    -0.33517063579466E-05
   C       0.29656101751112E-04     0.87706106067450E-05    -0.45191786718506E-06
   C      -0.29866510152938E-04    -0.69829966341135E-05     0.61596545746084E-07
   C      -0.30431147272233E-04     0.55707786909069E-04     0.50545833985299E-07
   C      -0.13684657477152E-04     0.10765602218970E-04    -0.45539145637233E-06
   C      -0.45637336718360E-04     0.31415948147544E-04     0.21581478255343E-06
   C       0.20767996638377E-05    -0.56972317480862E-05    -0.44991465837980E-06
   C       0.10558025710064E-04     0.76501246976120E-06    -0.42954040139850E-06
   C      -0.33161681889832E-04    -0.47189731427403E-04     0.23555552599857E-06
   C      -0.19705636249252E-04     0.59312907235756E-04     0.46290422629409E-07
   C       0.31693877103776E-06     0.32769960928342E-04     0.38622788068566E-07
   C      -0.78586149529125E-04     0.17238163512223E-04     0.75644326034612E-07
   C       0.13978844084308E-04    -0.62825442010569E-05     0.21069007220445E-06
   C      -0.27401838787628E-04    -0.16660042133055E-04     0.59554808825924E-07
   C      -0.29501038076456E-04    -0.72295112113447E-05     0.50274440168505E-07
   C      -0.85845345290111E-05     0.15533924701391E-04     0.25394193328324E-07
   C       0.11631744770251E-04    -0.44048248369601E-05     0.23368126802685E-06
   C      -0.67577830929186E-04     0.12698539260978E-05    -0.43418631613848E-06
   C      -0.28464024740595E-04     0.96248989887373E-04    -0.45099235509361E-06
   C      -0.65354393133923E-04    -0.80461306129882E-05    -0.32834422469476E-05
   C       0.12310880316306E-05     0.26379714637951E-04    -0.45150923145995E-06
   C       0.28963770287958E-04    -0.12507428094101E-04     0.41432108246502E-07
   C       0.85537199552548E-05    -0.16886153958871E-04     0.58768637329579E-07
   C      -0.33614128509951E-04    -0.22595977615140E-04    -0.43462950208396E-06
   C      -0.10633976695034E-04     0.91847823309885E-04    -0.34215707621353E-05
   C       0.29292348896639E-04     0.15442887600949E-04     0.61350247984862E-05
   C       0.45767483941317E-04    -0.19633629893411E-03    -0.37311930848432E-04
   C       0.49528241939946E-04    -0.37056114608668E-04     0.61403046544421E-05
   C       0.60752098321550E-05    -0.23837708995358E-04    -0.43848510463672E-06
   C       0.18401880799607E-04     0.52682575139803E-05     0.41484675693635E-07
   C       0.17877887968894E-04     0.26006957965316E-04    -0.44136924558016E-06
   C       0.20938932796330E-04     0.48181668456989E-05     0.60168655413382E-05
   C      -0.14895931765265E-04     0.29333906898181E-03    -0.34602521753794E-04
   C      -0.45382119376631E-04     0.60286101998549E-04     0.39263985961418E-04
   C      -0.19933669021194E-04    -0.66807151772907E-05    -0.54062572085090E-06
   C      -0.25831464336656E-05     0.21992298022838E-04    -0.45564535329018E-06
   C      -0.14427329050693E-04    -0.18214735612683E-04    -0.46763806257227E-06
   C      -0.15498537545912E-04    -0.19641692167242E-04    -0.53040216143966E-06
   C       0.36798074718221E-04    -0.11570160125783E-03     0.39518440453723E-04
   C       0.10180885680813E-02     0.50508947183172E-05     0.74095315715608E-03
   C       0.18851606346168E-02     0.50586475928941E-03     0.73461372114908E-03
   C       0.54234353849443E-04     0.10390147449364E-04    -0.55639882154671E-04
   C      -0.48796257421511E-04    -0.12880481679436E-04     0.25245809271436E-05
   C       0.16858622091630E-05    -0.25692171025103E-04     0.79523004684275E-06
   C       0.25071796231028E-04    -0.24723234519422E-04     0.25213196982316E-05
   C       0.10007299620266E-03     0.29933424364828E-04    -0.55628678814348E-04
   C       0.18358529763222E-02    -0.52526745715478E-03     0.74719689577105E-03
   C       0.10653884378585E-03     0.14771350467893E-04     0.39378983367408E-04
   C      -0.83826818759365E-04     0.23767487776811E-04    -0.55456193525504E-04
   C      -0.14407869958775E-05    -0.54974105586341E-05     0.73491051211481E-05
   C      -0.85969935891825E-06     0.37787228807048E-05    -0.94071268227791E-06
   C      -0.63925080792944E-05    -0.64423926342107E-04    -0.92887544690584E-06
   C      -0.14295661899702E-04    -0.20887521933197E-05     0.73577187272603E-05
   C      -0.37966460370854E-04    -0.27445231934338E-04    -0.55727343628626E-04
   C       0.15187952599603E-04    -0.26677955262119E-06    -0.53930801890612E-06
   C       0.21213258279276E-04     0.90356073305047E-05    -0.51840845206813E-06
   C      -0.28322540956094E-05     0.47975974155136E-04     0.24730776888447E-05
   C      -0.28990105734002E-05    -0.53073898879213E-04    -0.91961727896566E-06
   C       0.43508213964512E-04    -0.16482737898984E-04     0.73381072571191E-06
   C      -0.10218323487032E-05    -0.11389455707218E-04    -0.93054624386333E-06
   C       0.19379865071958E-04    -0.34777566819650E-04     0.25095594302245E-05
   C       0.67981749463820E-05     0.22369268685301E-04    -0.46017247361379E-06
   C      -0.40216852727069E-05     0.10798061702832E-04     0.30430953177982E-06
   C       0.93541815479609E-06    -0.90651746460675E-05    -0.44907558546944E-06
   C       0.57118949896786E-04     0.86206072011229E-05     0.81452086000081E-06
   C       0.59616794190806E-05    -0.10262595311096E-04    -0.93930635524286E-06
   C       0.35221984580579E-04    -0.98351711172075E-04    -0.94420419820073E-06
   C       0.64915667007099E-04     0.13245509839078E-04     0.81354761473767E-06
   C      -0.25774046530296E-05    -0.23525428469417E-04    -0.47481756107206E-06
   C       0.35892646225106E-04     0.18293422840450E-04    -0.30858741311796E-08
   C       0.27903311978959E-04     0.13580592320021E-04    -0.15120224891840E-07
   C      -0.13749030427025E-05     0.13471215597777E-04    -0.47149983288391E-06
   C       0.45721136339911E-04    -0.73987942556257E-04     0.24707056689372E-05
   C       0.69906796621494E-04    -0.11343700295477E-04     0.73577997864075E-05
   C      -0.16469310466665E-04    -0.88008782633523E-05     0.25550129090831E-05
   C       0.38638600733737E-04     0.49682253817370E-04    -0.55124343584644E-06
   C      -0.24082353105145E-04     0.17217293369783E-04     0.32285328955726E-06
   C      -0.18326488404543E-04    -0.64290524181595E-05    -0.19564382894492E-07
   C       0.21491328062446E-04    -0.20277594758197E-04     0.32168403222199E-06
   C       0.54667420876286E-04    -0.12946196051314E-04    -0.51967724796442E-06
   C       0.33543746230880E-04     0.40351903825948E-04    -0.55396698344145E-04
   C       0.62665174085065E-04    -0.13908682483983E-03    -0.55799563248905E-04



   Partial temperatures (for each ionic specie) 
[...]
   C       0.94152141458517E-05    -0.62034650219991E-06    -0.67524277431297E-06
   C       0.19067555988496E-06     0.17215519001186E-07    -0.47448804564261E-07
   C       0.65711077759071E-07     0.46350063045195E-07     0.31190318093028E-08
   C       0.10548714077996E-06    -0.35286104613926E-07     0.29685709140908E-08
   C       0.27644981695060E-06    -0.45825576440604E-07    -0.49467529021903E-07
   C       0.92238875080443E-05     0.56872295985031E-06    -0.61220526249925E-06
   C      -0.27078521942208E-07    -0.58953516669972E-05    -0.63556694778818E-06
   C      -0.27365001828967E-07     0.59417812513003E-05    -0.65172072483082E-06
   C       0.43611700611229E-06     0.18528603931406E-06     0.10544177541989E-06
   C       0.13165647770215E-06    -0.15968483084535E-06    -0.81691913892649E-08
   C      -0.10488288122902E-07    -0.31369021419567E-07     0.11704994103512E-08
   C       0.13869038102268E-06     0.13309133687788E-06    -0.81249264991421E-08
   C       0.44345056638042E-06    -0.11609782286447E-06     0.10603471842395E-06
   C      -0.16758918865114E-06    -0.26194568720492E-06    -0.48509126194648E-07
   C       0.25965580232372E-06     0.14458915684519E-08     0.10485105421632E-06
   C      -0.17260042035072E-06     0.22010593830015E-06    -0.48341143444418E-07
   C      -0.84661666212926E-07     0.26134320216762E-06    -0.81460312434664E-08
   C       0.12783856553072E-06     0.80555759422555E-07     0.96428973310474E-09
   C       0.13123646742584E-06    -0.13247669278524E-06     0.93442602816305E-09
   C      -0.33180950658194E-07    -0.28554645244680E-06    -0.81841551053759E-08
   C       0.62805908907783E-07    -0.40825192210933E-07     0.29594406043841E-08
   C      -0.55429250765737E-07    -0.26526604721744E-06    -0.81956850225454E-08
   C      -0.68935363643176E-07     0.28458787551940E-06    -0.81618710129904E-08
   C       0.53919663448854E-07     0.72986238106672E-07     0.31001535860014E-08
   C      -0.67106720478655E-08    -0.41817482418870E-07     0.11766243100554E-08
   C      -0.33112144408573E-07    -0.29457919622323E-07     0.89428020193249E-09
   C       0.68973549685075E-07    -0.29753386550453E-07     0.12032678204577E-08
   C       0.29699188104691E-08    -0.68488551583162E-07     0.30721096489487E-08
   C      -0.77098659319184E-08    -0.28134470180544E-08     0.12168094741132E-08
   C       0.29990621460871E-07     0.22453737869243E-08     0.93083212426470E-09
   C      -0.34360618371760E-07    -0.33157332612178E-08     0.12238839889674E-08
   C       0.98032557076473E-08     0.84398159041554E-07     0.29624169043944E-08
   C       0.14015910426104E-07    -0.63406403946051E-07    -0.80916333224200E-08
   C      -0.32356733571798E-07    -0.44766499136500E-07    -0.81596948443864E-08
   C      -0.12181738469339E-06    -0.28951562858333E-06    -0.47639401451247E-07
   C      -0.40629533084761E-07     0.21406189573884E-07    -0.83211852796052E-08
   C       0.63388311140991E-07    -0.39110272517460E-07     0.10276755609232E-08
   C       0.87364940003333E-07     0.83698939583339E-07     0.90526411005966E-09
   C      -0.88554609626016E-08    -0.13495480864468E-07    -0.80851056033647E-08
   C      -0.19920579406216E-06     0.19511675876966E-06    -0.49281647166893E-07
   C       0.22043341309630E-06    -0.76407489552526E-08     0.10573107681614E-06
   C       0.43108263298363E-07    -0.49052840471767E-05    -0.66631499540988E-06
   C       0.39266090977726E-06    -0.61835521809624E-07     0.10600346373343E-06
   C       0.13936693248824E-06    -0.14244942917512E-06    -0.83072136634978E-08
   C      -0.27525359753820E-07     0.48190907290366E-08     0.11821717304554E-08
   C       0.12423927607736E-06     0.15884927527151E-06    -0.80476024923694E-08
   C       0.42219878889462E-06     0.12881141690047E-06     0.10376980132143E-06
   C       0.11659692688450E-06     0.47796791321788E-05    -0.62042580706173E-06
   C       0.11245249933767E-06     0.13286062860398E-05     0.66221241052684E-06
   C      -0.17339711896848E-06     0.82054790740557E-08    -0.10065010312933E-07
   C      -0.21905062925747E-07    -0.58920233333930E-07    -0.72143317201107E-08
   C       0.15426820368765E-08     0.41440771219314E-07    -0.73034134100727E-08
   C      -0.17577210012088E-06     0.10929635629396E-07    -0.99042389731969E-08
   C       0.83947552693320E-08    -0.12923316064030E-05     0.66525980107190E-06
   C       0.17764335311289E-04     0.20233310816999E-07     0.12241741705869E-04
   C       0.33907190660728E-04     0.93373121944372E-05     0.12122931516651E-04
   C       0.93496919199057E-06    -0.10737767013683E-05    -0.91191723968177E-06
   C       0.12348407753918E-06     0.53374390984156E-07     0.41158220619104E-07
   C      -0.68158142074078E-07     0.35780614657733E-07     0.13276589868158E-07
   C       0.39122505433587E-07    -0.74457117664021E-08     0.40938533015482E-07
   C       0.85153661960950E-06     0.10172914201598E-05    -0.91146809728540E-06
   C       0.33078335808554E-04    -0.87634997818628E-05     0.12355641637342E-04
   C       0.23743418891493E-05    -0.32130377480626E-07     0.66383509511450E-06
   C      -0.78865581792608E-06    -0.22833004328574E-07    -0.90922026971518E-06
   C      -0.48762096452553E-06    -0.27845440519389E-06     0.11998581670746E-06
   C      -0.32121686370052E-07    -0.79180024551632E-07    -0.15199008243862E-07
   C      -0.26015603641168E-07     0.13827188676397E-06    -0.15222910694461E-07
   C      -0.46270779146879E-06     0.27161668602554E-06     0.12026089826592E-06
   C      -0.84772346611055E-06     0.28056618320482E-07    -0.91442520200960E-06
   C       0.14406371577419E-06     0.19031335072614E-06    -0.10228293372940E-07
   C       0.14001378769203E-06    -0.20437556231824E-06    -0.97928094635692E-08
   C       0.13772726654761E-06    -0.67605396980853E-07     0.40682627861060E-07
   C      -0.12819484675298E-06     0.49984132493138E-07    -0.15205340847294E-07
   C      -0.20791378650338E-06     0.12075803236658E-07     0.11838261221186E-07
   C      -0.12122146312235E-06     0.21277834309925E-07    -0.15288992343582E-07
   C       0.12500014452604E-06     0.45363653010414E-07     0.41496403986264E-07
   C      -0.46909365281429E-07    -0.59550692311985E-08    -0.72826273021492E-08
   C       0.24256413397998E-06    -0.45373588556592E-08     0.55163938689014E-08
   C      -0.43728906584165E-07     0.69025321447219E-09    -0.72492310603197E-08
   C      -0.45137557580830E-07    -0.51772107765553E-07     0.13371260283239E-07
   C      -0.10598387378275E-07     0.66505448274320E-07    -0.15221241983829E-07
   C      -0.44923696230342E-07     0.62844603318211E-07    -0.15231565803215E-07
   C      -0.61005535737716E-07     0.27627740058522E-07     0.13218743593174E-07
   C       0.10493649100982E-07     0.12860146677781E-07    -0.72221099886945E-08
   C       0.12381132271813E-07     0.36976593765509E-07    -0.32785482723498E-09
   C       0.20487275538651E-07    -0.85595128250562E-07    -0.34929394309095E-09
   C       0.15930444312463E-07    -0.70199315441497E-08    -0.72526243412991E-08
   C       0.25927470084319E-07     0.42321488290888E-07     0.40534598043572E-07
   C      -0.79350354214521E-07     0.44352791438730E-08     0.12015579388554E-06
   C       0.10829631606058E-06     0.44627746828523E-07     0.41541074449386E-07
   C       0.10521961730844E-06     0.14758073810507E-06    -0.10295390331382E-07
   C       0.14551367673544E-07     0.13297911127736E-06     0.55138290425642E-08
   C      -0.41718030299445E-07     0.15954517947994E-07    -0.31645787192160E-09
   C      -0.32545589338102E-07    -0.10813556492485E-06     0.54741143589204E-08
   C       0.86729001159488E-07    -0.19026053551631E-06    -0.97101429864764E-08
   C       0.92521764078338E-06     0.10464569691278E-05    -0.90892494648433E-06
   C       0.89044691282272E-06    -0.93142953516985E-06    -0.91460930304117E-06

   Forces acting on atoms (au):
   C      -0.12040922649868E-02     0.58084080853293E-04    -0.13868506422494E-02
   C       0.32047395022920E-03    -0.11553142573021E-04     0.22200587791495E-04
   C      -0.10511500893186E-04     0.12412702671721E-05    -0.85226587847902E-05
   C      -0.20265528137905E-04     0.14336953087381E-04     0.70942106231296E-06
   C       0.55138561285827E-05    -0.80869915708104E-05     0.67376019095278E-06
   C       0.47701792682607E-04    -0.20600951642517E-04    -0.86013246112998E-05
   C       0.30473384942758E-03    -0.29763478563394E-04     0.23975393130604E-04
   C       0.37705590522001E-03     0.19200094236480E-04     0.23817441507863E-04
   C       0.35850720617542E-03    -0.42782885852989E-04     0.22400105307779E-04
   C      -0.55137917572775E-04    -0.72868090888548E-05     0.26051078919530E-06
   C      -0.61371222845605E-05    -0.10249791035093E-04     0.20710833758182E-06
   C      -0.17148557273051E-04    -0.24372913054812E-04    -0.89112559765688E-07
   C       0.61403076473773E-06    -0.22175726789466E-04     0.22624370703954E-06
   C      -0.46765541261748E-04     0.32941346890525E-04     0.23615039951612E-06
   C       0.54923785003895E-04    -0.83774854312145E-05    -0.86717807100657E-05
   C       0.47494633923279E-04     0.53990401543484E-05     0.13645147857954E-06
   C       0.45116515363191E-04    -0.12197854188950E-04    -0.85415925774070E-05
   C      -0.27533428387208E-04    -0.13415910120313E-04     0.22665362330075E-06
   C       0.19658042430264E-04     0.44925174188289E-05    -0.31909932439061E-07
   C       0.18785065901523E-04    -0.40764061697892E-04     0.32162538035689E-07
   C       0.34985599188369E-05    -0.18779128670362E-05     0.20449664318442E-06
   C       0.37253503191956E-04    -0.22131371095896E-04     0.73109514431768E-06
   C       0.38151137171656E-05     0.55065943657665E-05     0.21952224451441E-06
   C      -0.28027644914522E-05     0.58317950756067E-06     0.21839969248801E-06
   C       0.28101919037464E-04     0.32487663851590E-04     0.67253921123123E-06
   C       0.16794589649418E-04    -0.44528100053486E-04    -0.66952431955685E-07
   C      -0.28477738703633E-05    -0.21929910299815E-04     0.32119512830911E-07
   C       0.57537027781942E-04    -0.10724005082533E-04    -0.11073041275549E-06
   C      -0.80591673429073E-05     0.46768109238342E-05     0.72796943968145E-06
   C       0.18464168891962E-04     0.15089771931082E-04    -0.99943559940298E-07
   C       0.23197970819948E-04     0.71454170370488E-05    -0.20825632939565E-07
   C       0.61964087801678E-05    -0.13726350948964E-04    -0.96469773194096E-07
   C      -0.59723937188622E-05    -0.10799692239326E-05     0.73440777556997E-06
   C       0.55125051189760E-04    -0.59962299570372E-06     0.20307518750917E-06
   C       0.28209372849213E-04    -0.67801011513962E-04     0.17561247757500E-06
   C       0.81799533967697E-04    -0.26898392471121E-05    -0.85842842587668E-05
   C      -0.30373164044227E-05    -0.10858278601098E-04     0.23143231576676E-06
   C      -0.25463277214989E-04     0.11787144685790E-04    -0.61608683284880E-07
   C      -0.10958346537524E-04     0.10695493639756E-04    -0.44615954296462E-07
   C       0.19142394985034E-04     0.84301179301541E-05     0.25815501141466E-06
   C       0.41034630308940E-04    -0.57673408345006E-04    -0.86451710729798E-05
   C       0.16193696028361E-04    -0.12482451051183E-04     0.27337535945402E-06
   C       0.37355830068683E-03    -0.10083562359899E-04     0.22957876727467E-04
   C      -0.77105777753193E-04     0.73008285918828E-04     0.13356943634375E-06
   C      -0.11071742360782E-04     0.25533282242780E-04     0.21365022932666E-06
   C      -0.16705034770941E-04    -0.27347758996339E-05    -0.48826485836046E-07
   C      -0.21554003301713E-04    -0.25537183070399E-04     0.19952796416245E-06
   C      -0.59551220865493E-04    -0.51966541622624E-04     0.44217429765881E-07
   C       0.40700959020796E-03    -0.63236536692591E-04     0.23302039709065E-04
   C       0.10691869958127E-03    -0.19616441041536E-03     0.15589532024825E-04
   C       0.45534571850830E-04    -0.50383980840963E-06     0.31388285948026E-06
   C       0.58255034575049E-05    -0.17266720644363E-04    -0.47675111179394E-06
   C       0.16080265249307E-04     0.13464943016650E-04    -0.41957698710712E-06
   C       0.44191386200697E-04     0.19242283738163E-04     0.31059195969759E-06
   C       0.54354407330475E-04     0.23103774533084E-03     0.15844772519200E-04
   C      -0.41787515867972E-03    -0.16213094851839E-04     0.49238801086605E-03
   C      -0.61308232719247E-03    -0.12629477922504E-03     0.49378917329876E-03
   C       0.31307053263764E-03     0.14747156490355E-04    -0.43659762262999E-04
   C       0.51346966588157E-04     0.63461790625630E-05     0.18725123743774E-05
   C       0.49080782460419E-05     0.18309144062619E-04     0.60502906787092E-06
   C      -0.63693053590513E-06     0.22513985943487E-04     0.17284658638405E-05
   C       0.27160774897846E-03    -0.42115546933706E-04    -0.43123376572727E-04
   C      -0.52965043625998E-03     0.95281021058265E-04     0.49133290743957E-03
   C      -0.25705818928288E-03    -0.12280624917861E-04     0.15685221090677E-04
   C       0.10393383637497E-03     0.18083233532099E-03    -0.43420062499067E-04
   C       0.68456683588450E-05     0.11836961571137E-04     0.67200877782320E-05
   C       0.42297867620879E-05    -0.24773018383639E-05    -0.86058122817004E-06
   C       0.85054338702794E-05     0.46887505457883E-04    -0.83576866211133E-06
   C       0.16768782006328E-04    -0.61699629187557E-05     0.67396305667138E-05
   C       0.67715820471726E-04    -0.17329504314976E-03    -0.43408619940820E-04
   C      -0.15637734866966E-04    -0.19716706541961E-04     0.33678996409261E-06
   C      -0.21595045712061E-04     0.98364799213464E-05     0.32969653403736E-06
   C      -0.34022298392348E-05    -0.23904228266330E-04     0.17870415585417E-05
   C       0.20838697877987E-05     0.42177669795831E-04    -0.83649972625760E-06
   C      -0.33037110089869E-04     0.11239825620364E-04     0.68252031888148E-06
   C       0.24660052401197E-05     0.50673177156233E-05    -0.79666534969267E-06
   C      -0.17683032439966E-04     0.14435708011899E-04     0.17880344995456E-05
   C      -0.63850659785957E-05    -0.21895208204730E-04    -0.44081002259712E-06
   C       0.23781812435120E-05    -0.10134244747955E-04     0.18887265923352E-06
   C      -0.23718904663043E-05     0.11178811480027E-04    -0.47992770101608E-06
   C      -0.44356357599248E-04     0.98719759112960E-06     0.62496109173784E-06
   C      -0.65513798791468E-05     0.58319644418222E-05    -0.81916897359300E-06
   C      -0.27120355523355E-04     0.69706415058909E-04    -0.84145298379036E-06
   C      -0.48638743645717E-04    -0.12654044771342E-04     0.53889902520062E-06
   C       0.24607782168641E-05     0.11585406949977E-04    -0.45311107161983E-06
   C      -0.23345243441584E-04    -0.15385899608831E-04    -0.16591737941770E-07
   C      -0.20127481154667E-04    -0.96469298343479E-05     0.41048064792109E-08
   C      -0.18484125427134E-06    -0.51594582004739E-05    -0.48589604032410E-06
   C      -0.34688036000571E-04     0.68791309516835E-04     0.17915649851289E-05
   C      -0.63325067882855E-04     0.88160724297378E-05     0.66854181982031E-05
   C       0.93573986767438E-05    -0.10917592007461E-04     0.18720722266978E-05
   C      -0.29977463097898E-04    -0.57197931127998E-04     0.32959779113323E-06
   C       0.22953371271938E-04    -0.20554805057697E-04     0.18427105385352E-06
   C       0.18861492411197E-04     0.47618974235569E-05    -0.30405724533892E-07
   C      -0.86533707653355E-05     0.23284045607316E-04     0.18579521835521E-06
   C      -0.40840942501565E-04     0.32927996230076E-04     0.34291519054181E-06
   C      -0.16510525802567E-04     0.14832433829455E-03    -0.43214319606863E-04
   C      -0.37978623275224E-04    -0.76853571192687E-04    -0.43627528156310E-04



   Partial temperatures (for each ionic specie) 
   Species  Temp (K)   Mean Square Displacement (a.u.)
        1   3.88E-01     1.1965E-06
    292    0.000002588890596    0.0    0.39    -560.706618026140    -560.706618026140    -560.706437630829    -560.706548718697   0.0000   0.0000  -0.0083  -0.8231

   writing restart file (with schema): ./out/graphene_69.save/
     restart      :      1.73s CPU      7.99s WALL (       2 calls)


   Averaged Physical Quantities
                      accumulated      this run
   ekinc         :       23.02104       0.00000 (AU)
   ekin          :      415.41874     403.01817 (AU)
   epot          :     -957.27473    -975.07236 (AU)
   total energy  :     -530.79810    -560.70658 (AU)
   temperature   :        0.03499       0.10218 (K )
   enthalpy      :     -530.79810    -560.70658 (AU)
   econs         :     -530.79808    -560.70653 (AU)
   pressure      :       12.64153      -2.58076 (Gpa)
   volume        :    26172.40970   26172.40970 (AU)



     Called by MAIN_LOOP:
     initialize   :    171.44s CPU     90.40s WALL (       1 calls)
     main_loop    :  25108.80s CPU  14787.63s WALL (     100 calls)
     cpr_total    :  25110.60s CPU  14795.74s WALL (       1 calls)

     Called by INIT_RUN:
     init_readfil :    170.06s CPU     89.24s WALL (       1 calls)

     Called by CPR:
     cpr_md       :  25110.60s CPU  14795.74s WALL (     100 calls)
     move_electro :   3928.12s CPU   2912.90s WALL (     100 calls)

     Called by move_electrons:
     rhoofr       :     19.78s CPU     20.05s WALL (     100 calls)
     vofrho       :      4.61s CPU      4.66s WALL (     100 calls)
     dforce       :   3818.21s CPU   2816.56s WALL (    9800 calls)
     calphi       :      0.81s CPU      0.84s WALL (     100 calls)
     nlfl         :      0.10s CPU      0.10s WALL (     100 calls)

     Called by ortho:
     ortho_iter   :      0.52s CPU      0.46s WALL (     100 calls)
     rsg          :   1039.15s CPU   1184.06s WALL (     100 calls)
     rhoset       :    966.91s CPU    503.95s WALL (     100 calls)
     sigset       :    556.76s CPU    288.15s WALL (     100 calls)
     tauset       :    558.52s CPU    290.85s WALL (     100 calls)
     ortho        :   3121.87s CPU   2267.53s WALL (     100 calls)
     updatc       :   1133.78s CPU    879.42s WALL (     100 calls)

     Small boxes:

     Low-level routines:
     prefor       :      3.14s CPU      4.64s WALL (     401 calls)
     nlfq         :     82.63s CPU     69.54s WALL (     100 calls)
     nlsm1        :     40.19s CPU     33.21s WALL (     101 calls)
     nlsm2        :     82.61s CPU     69.52s WALL (     100 calls)
     fft          :      1.07s CPU      1.08s WALL (     302 calls)
     ffts         :      0.75s CPU      0.76s WALL (     200 calls)
     fftw         :   1288.46s CPU    815.19s WALL (   29400 calls)
     fft_scatt_xy :      7.16s CPU      6.48s WALL (   29902 calls)
     fft_scatt_yz :   1254.69s CPU    785.30s WALL (   29902 calls)
     fft_scatt_tg :      0.95s CPU      0.62s WALL (   29400 calls)
     betagx       :      0.39s CPU      0.39s WALL (       1 calls)
     qradx        :      0.00s CPU      0.00s WALL (       1 calls)
     nlinit       :      1.00s CPU      0.72s WALL (       1 calls)
     init_dim     :      0.35s CPU      0.36s WALL (       1 calls)
     newnlinit    :      0.54s CPU      0.26s WALL (       1 calls)
     from_restart :    169.24s CPU     87.12s WALL (       1 calls)
     strucf       :      0.55s CPU      0.55s WALL (     101 calls)
     calbec       :     40.20s CPU     33.21s WALL (     101 calls)


     CP           :      7h 1m CPU      4h 8m WALL


   This run was terminated on:   0: 6: 2  26Jun2022            

=------------------------------------------------------------------------------=
   JOB DONE.
=------------------------------------------------------------------------------=
